LAMMPS data file via write_data, version 29 Sep 2021, timestep = 0

1000 atoms
2 atom types

-25.5 25.5 xlo xhi
-25.5 25.5 ylo yhi
-50 50 zlo zhi

Masses

1 1
2 1

Pair Coeffs # lj/cut

1 5 1
2 8 3

Atoms # atomic

1 1 2.737957249739189 16.847496366522975 -10.321419621036114 0 0 0
2 1 11.160171698387792 9.005734803623398 -1.5378887539440242 0 0 0
3 1 -18.91851501488989 -3.4818552543790346 1.1468491289517075 0 0 0
4 1 -9.962675883417333 -2.6935725951071703 22.813485084480362 0 0 0
5 1 10.497525944606178 -8.081449003928086 37.716477451713985 0 0 0
6 1 0.33461238273168803 -16.169683428560237 -9.673459529724653 0 0 0
7 1 7.266273567111359 4.259842440606953 -12.070251797358623 0 0 0
8 1 14.111216717451441 7.219370206454478 39.887649700924584 0 0 0
9 1 -3.3085906241594785 -7.4826202483301145 -0.9962842105870493 0 0 0
10 1 14.086698384064576 -4.860259026689576 -15.93365392923991 0 0 0
11 1 1.2313645059388918 15.54325131491909 -11.43787538699707 0 0 0
12 1 -14.548651703888854 0.8108127400329401 -31.67569566596099 0 0 0
13 1 10.633176877458194 -8.196220560090719 15.302616388212243 0 0 0
14 1 -3.570545326718385 -10.155306155865688 -0.5764040865825493 0 0 0
15 1 4.950606722827352 4.847190559304874 -33.170674407468496 0 0 0
16 1 0.19009347082585748 -5.099035829817426 -48.73797935374918 0 0 0
17 1 -7.284078778365664 16.48797200829162 -16.63614160690277 0 0 0
18 1 -1.4527948859393582 -17.123647982777864 7.120883631110608 0 0 0
19 1 -7.723524769639376 -9.280803328976411 43.846124733726555 0 0 0
20 1 8.727359896864442 0.7377866007097964 -0.05150467625423971 0 0 0
21 1 13.74436247802543 1.5001681733411587 33.316223362142324 0 0 0
22 1 18.306419010416796 -4.01569192484752 -29.33545228062917 0 0 0
23 1 -16.37859221379207 5.000662796665289 15.349058883892866 0 0 0
24 1 -11.346935365044947 12.05731968956875 18.430056454814064 0 0 0
25 1 -18.41646557600073 -5.536935844243009 -48.20183548061262 0 0 0
26 1 -11.299569062562458 8.14276551275643 38.649932243232584 0 0 0
27 1 -4.23551519598603 13.696101062789609 -24.07359423771202 0 0 0
28 1 -1.9593412903879504 -10.649067550268521 -47.19579340759469 0 0 0
29 1 -7.8799205775744845 2.1748527056420457 -18.126440685301294 0 0 0
30 1 -18.04027294648824 -2.8674116278381163 18.531927312040665 0 0 0
31 1 -13.559066612999452 -7.2325646817835825 5.713483158365584 0 0 0
32 1 10.604577060139071 -8.873350242559495 -35.993816743601954 0 0 0
33 1 8.47001514791977 -4.455408912364119 -5.143975259337566 0 0 0
34 1 18.08312652543333 3.107512957932201 -30.074290083755876 0 0 0
35 1 16.562624926009505 8.03713144177437 0.17035475474332884 0 0 0
36 1 -14.739054811531238 0.7057825944879035 -44.77983610461458 0 0 0
37 1 -5.882164102924133 18.467922154100577 -24.08089007906657 0 0 0
38 1 -11.007823548749007 -8.490383824561903 -44.702348529688244 0 0 0
39 1 -4.9486953881330304 -12.723388351836888 -4.97007330645345 0 0 0
40 1 -12.808824625242885 2.0845235428235114 -13.532039413010722 0 0 0
41 1 -13.194565788467678 -1.0672067762665485 -41.36072177968953 0 0 0
42 1 17.116930129526615 4.244686953837373 -48.865917138227225 0 0 0
43 1 4.2122631260251 -4.493640896162782 -11.55635451970452 0 0 0
44 1 -11.060165069559666 -8.194324089304693 -5.012422360019954 0 0 0
45 1 14.11238101968187 -13.212202206818482 -43.70622499552845 0 0 0
46 1 11.790600061319118 4.615230590391548 20.451331776776968 0 0 0
47 1 10.213268916221928 14.410674941917264 0.5343720086544579 0 0 0
48 1 -7.523860217781673 -13.51868025656728 -21.147680315723495 0 0 0
49 1 -11.625226545904402 14.817442984700875 -8.08939033098956 0 0 0
50 1 4.961111017019071 -18.607136960424082 -25.377234618820825 0 0 0
51 1 -6.072895408641962 12.846866954512365 -6.7677387766389785 0 0 0
52 1 -18.154247588549858 1.5607792425718081 -19.95817523913373 0 0 0
53 1 -14.82049764824123 -8.103973990354676 -8.72713972755109 0 0 0
54 1 9.18503961953569 12.96088553637307 -15.99197544436528 0 0 0
55 1 18.85898679441725 2.991053770757773 -23.39818718535741 0 0 0
56 1 -14.155572836359765 7.287339301448007 -4.220901408335614 0 0 0
57 1 -16.275987958664068 9.470378732993442 21.638413552026464 0 0 0
58 1 -9.273372436535253 -17.57054084798812 29.79991965917867 0 0 0
59 1 17.825655097991998 -4.214768048475854 5.983523165799454 0 0 0
60 1 -13.970460963421715 -1.5374122287786633 1.7816772925582143 0 0 0
61 1 -0.03687049263942299 -19.682369790823373 -3.972685920993186 0 0 0
62 1 18.75674912648124 4.682568770219838 49.83330271199034 0 0 0
63 1 19.327472168639055 -3.175261683378025 -16.557781336157475 0 0 0
64 1 5.34763328048756 -2.3274548455734987 6.166026115494795 0 0 0
65 1 12.960369248390371 -15.074042303056476 26.427531324526072 0 0 0
66 1 -12.99241147609074 -3.4596786571013176 32.95202524538712 0 0 0
67 1 9.875319688522872 14.498005003900268 -30.0747486204257 0 0 0
68 1 13.47997460210695 -2.0668623885451183 -44.39041069447548 0 0 0
69 1 12.14698318026354 -5.653689310724703 46.10938662481931 0 0 0
70 1 -7.845676721933149 17.71133446959375 -14.003923844547906 0 0 0
71 1 14.420777873332042 10.013717091648708 -48.64210165042528 0 0 0
72 1 -11.120975479074277 9.76512319863081 6.063998470112686 0 0 0
73 1 7.04891487352965 -8.887720587145406 -39.79977038213973 0 0 0
74 1 8.902096612799024 17.537771313235993 -6.693846106852334 0 0 0
75 1 -1.3886071468650414 -18.320317360721678 26.065295876965536 0 0 0
76 1 -8.228878336133844 17.24180459847758 -42.47528346836347 0 0 0
77 1 7.16429888604409 10.37137774302223 -20.635682563593466 0 0 0
78 1 -9.566738526135094 11.825591247447576 -18.219760371474436 0 0 0
79 1 8.734611435204094 2.6143914752706863 -49.806187814011324 0 0 0
80 1 2.9605639646577515 -1.8014459972276562 7.742811486936553 0 0 0
81 1 13.373064377053204 1.0929851332181073 24.502834991786088 0 0 0
82 1 7.659082779502068 6.204275091273836 -11.87135240150213 0 0 0
83 1 -8.727924818512015 -10.232424731474568 -40.90615473264184 0 0 0
84 1 -3.897036604535316 -17.494212425078363 36.929429269828574 0 0 0
85 1 -10.832904796503906 11.369085158858955 0.5356623560821916 0 0 0
86 1 1.1508874693656743 -17.03430237110439 -38.79987787865097 0 0 0
87 1 -3.8190025947145188 14.02339063306497 27.815924807365946 0 0 0
88 1 0.8992949597999882 -5.549610641575239 19.234867612475 0 0 0
89 1 -7.832014853056528 7.326364678948355 35.52789771255473 0 0 0
90 1 -6.378602714454104 -5.1758218301347565 24.90625231289596 0 0 0
91 1 -0.2469508630442192 9.49684481578732 33.67704734377426 0 0 0
92 1 4.0538827255619125 13.606968519094849 30.7997510679065 0 0 0
93 1 12.92529467163854 -4.572453771053093 -23.076325223351045 0 0 0
94 1 -17.51921154443138 -5.388427258184379 -8.24232076212872 0 0 0
95 1 -11.474019638949084 -3.8480718172379156 13.642419205812004 0 0 0
96 1 -4.744163167078124 -15.150349082029587 20.207445821821437 0 0 0
97 1 10.616770941119999 -3.930792596158941 37.92209089171239 0 0 0
98 1 -11.243327665721685 -6.608077784352041 45.091695988127825 0 0 0
99 1 16.788215915108196 -0.4551147764805279 -22.785120770700797 0 0 0
100 1 -6.0279134782161155 8.858171621737153 -1.7738836592873 0 0 0
101 1 -5.4650646566716325 -11.341684680125528 -49.23604717442582 0 0 0
102 1 -4.09794422988684 5.8513282918610265 -41.81349672927218 0 0 0
103 1 16.224188448965634 -0.06473823453520566 -20.138769582909887 0 0 0
104 1 -12.244160637373179 12.392167668972242 -12.094968958802042 0 0 0
105 1 7.942683765638009 12.686049077979312 36.06713399573562 0 0 0
106 1 -7.871573468610446 -17.53528693576124 11.081176652145189 0 0 0
107 1 6.683230244872732 5.050725576025773 18.861890662862862 0 0 0
108 1 4.7185482944913915 -15.358814483209892 -38.987548271653964 0 0 0
109 1 14.510479324734995 -2.373989178973247 -49.09032750832398 0 0 0
110 1 15.54622703955799 5.437853851093841 -14.975811664469454 0 0 0
111 1 0.6133421047652803 -11.559245209935701 9.414391526679687 0 0 0
112 1 11.071355562224685 -3.7270656897346797 -1.9826184268959892 0 0 0
113 1 -8.74716033635063 -13.523773045057325 -35.13392069616072 0 0 0
114 1 1.6779438507174795 1.2022990087057934 17.598598295635824 0 0 0
115 1 -8.143378099493393 14.244281814547385 9.111142744827617 0 0 0
116 1 12.390444927099367 6.207889759078569 40.00795208383721 0 0 0
117 1 5.460269220853352 10.744794882249455 -30.58103508343037 0 0 0
118 1 9.817341114309311 0.05210819656593202 -10.543850790962509 0 0 0
119 1 -4.200097482744649 8.961607510671769 44.343579651016555 0 0 0
120 1 -6.982722145962866 1.388892802125259 -42.19668670194069 0 0 0
121 1 0.11464019311342355 6.75772565731673 42.737806305632844 0 0 0
122 1 -2.275768491567934 -8.841037782300747 21.694982178367212 0 0 0
123 1 11.026188727014787 -2.8460650624921833 15.461236734623668 0 0 0
124 1 -17.197680472022704 -1.4156932856029343 16.10737217874609 0 0 0
125 1 6.641683274247537 -13.229209721660805 41.68052011713411 0 0 0
126 1 9.800643469114156 -0.5852145983768686 10.745612699885676 0 0 0
127 1 0.6050587913976315 9.223107020008893 31.89921322367117 0 0 0
128 1 12.030660096570223 -0.695756944220399 -33.9674037806538 0 0 0
129 1 3.937863420666133 -16.329488864321956 -24.298356647742146 0 0 0
130 1 7.007928559094637 -17.744707296483547 11.761170002520629 0 0 0
131 1 -12.006307054313973 9.997338145038736 -36.84449083490506 0 0 0
132 1 -12.03154680879393 -14.207215399577848 48.326948237757634 0 0 0
133 1 12.407612797062662 14.748280232189352 -14.135343983832442 0 0 0
134 1 10.909465491263877 -4.6134883279975 -47.24582163488763 0 0 0
135 1 15.790312977410068 -12.209788668998419 -24.795399641057198 0 0 0
136 1 -14.512706899322898 4.9351430800441385 -37.62563424540015 0 0 0
137 1 10.386095023893795 -0.9009334169798215 45.03015205032665 0 0 0
138 1 8.706203935996726 5.169552296944687 11.663636873319575 0 0 0
139 1 12.29797195284533 12.014611471451168 23.937501699634595 0 0 0
140 1 14.967726354937874 2.576847440831756 -27.312654851615733 0 0 0
141 1 -17.51603644225562 7.975515009823958 11.201925278269655 0 0 0
142 1 -11.696739248790191 12.903445583257565 -29.475205475220086 0 0 0
143 1 4.088631190400864 -2.3755829326694737 -16.055873439673277 0 0 0
144 1 12.777264710877681 -12.512004278838637 -23.139786102408443 0 0 0
145 1 -4.154009271484805 -16.433825845100834 -8.277446524369275 0 0 0
146 1 -7.617494029746155 12.777842056368407 -7.021396540580966 0 0 0
147 1 -3.4446630177296065 -14.451338981488412 -9.13565468934162 0 0 0
148 1 0.822003400336019 15.411149447509622 37.97191073557916 0 0 0
149 1 -2.4385068483829997 16.015399226925986 27.037017362675172 0 0 0
150 1 4.460325792646188 4.695597004469295 -2.752864711337196 0 0 0
151 1 -4.300266273459544 5.424741965450689 34.09553332445003 0 0 0
152 1 -14.382111837334051 -0.1536500734061228 44.008040658202034 0 0 0
153 1 -1.079101516436367 -16.459186746021356 26.120899047758854 0 0 0
154 1 5.580118273189349 -14.952182506654497 46.67152664469161 0 0 0
155 1 3.339326932718663 4.067758202584347 17.03027708783293 0 0 0
156 1 11.146806083222295 -15.630159282884634 -40.21766860513839 0 0 0
157 1 7.12929328304217 -17.967791910268268 38.30341030298891 0 0 0
158 1 3.0803142409214317 10.841447166559028 30.506320894000268 0 0 0
159 1 7.894106185014408 -3.7573484628262683 25.610963197243848 0 0 0
160 1 17.38338243094431 2.5085168809203964 1.608044072803125 0 0 0
161 1 -2.6723770157771085 5.359495834149186 -7.383788636598638 0 0 0
162 1 0.26575387467897826 -13.474628270359071 29.80665018773017 0 0 0
163 1 7.451732450840872 1.2673012825042491 48.831637622244486 0 0 0
164 1 5.333406825239493 -1.4314881998260915 -47.555436192804684 0 0 0
165 1 14.313563012664005 8.053553843895696 -9.80136411255289 0 0 0
166 1 -12.61065587057297 12.706783280105697 7.266471841030977 0 0 0
167 1 2.3436167567705795 -10.833168956839092 17.323356013429986 0 0 0
168 1 -18.542192912913016 1.3637126709165592 -0.20284976354001572 0 0 0
169 1 -3.7183903268158396 -14.986222793807379 16.38376119843859 0 0 0
170 1 -15.250215137028235 9.634191966445272 4.660950114326987 0 0 0
171 1 2.1442990666927315 -0.7655860952872722 31.986241267056315 0 0 0
172 1 -2.897209833793905 -13.405676574169508 26.984544832717887 0 0 0
173 1 11.698001395770348 8.309458712259989 42.68144238399408 0 0 0
174 1 16.16295134470004 10.723250373603427 -35.82742711800496 0 0 0
175 1 19.372971076226314 1.5248781356610728 -28.43293486090048 0 0 0
176 1 -7.82841588735041 -12.185818698343738 -17.63715765794607 0 0 0
177 1 -11.083502839823954 -0.43222892118255984 38.821304211775455 0 0 0
178 1 -12.136045076016357 -10.509592606923354 13.19263859800651 0 0 0
179 1 11.470766678206047 -10.824439390946385 -15.882109089699625 0 0 0
180 1 -12.242988232636353 -7.90322591918671 26.20494057247646 0 0 0
181 1 10.574480644694756 5.296195384718565 32.88957741246074 0 0 0
182 1 -9.948971508978389 -12.364151399752195 -10.73143908788051 0 0 0
183 1 14.68129999687956 -11.390952445283045 -19.344369680315427 0 0 0
184 1 -8.328486824561136 -16.878060399032226 26.097183663443275 0 0 0
185 1 6.146332596496833 -18.588050677714893 -23.419350885515733 0 0 0
186 1 -3.61213314515172 10.878229435010919 -23.994714428668246 0 0 0
187 1 8.333838949135426 -13.168781880833572 -19.29267792463893 0 0 0
188 1 19.18484823740313 -0.25567396555825894 -42.78084784410002 0 0 0
189 1 -7.16371526343921 -0.5624326227989194 -32.012728453619744 0 0 0
190 1 -6.267565929455481 -18.980576358260855 -16.367133225485283 0 0 0
191 1 7.036751707567252 -13.31405091719425 -23.134413209340725 0 0 0
192 1 -8.03312375584297 -12.710964452806378 17.051104208012617 0 0 0
193 1 -8.836630372720133 2.7533256927287795 -12.137705768522672 0 0 0
194 1 0.6316593757977955 16.299129033600508 48.65416930925761 0 0 0
195 1 12.249432277050538 -3.7917196116371628 -18.578781964526875 0 0 0
196 1 -7.7302109392966205 -1.6552567582834783 -49.750841176021304 0 0 0
197 1 -18.59497822755714 -5.799070552829219 37.553046498239524 0 0 0
198 1 14.808052384670852 -1.0635708370542005 11.412354075076223 0 0 0
199 1 2.9739759224345796 -16.38667164202159 -26.975718642108014 0 0 0
200 1 7.638712836261238 -16.153360957351214 -23.844025504702714 0 0 0
201 1 5.6746097401131905 13.165902082419912 -1.7092519214885513 0 0 0
202 1 -10.958817783258304 15.14951677767072 44.82120577936118 0 0 0
203 1 4.00221348926528 -14.79788591843 29.82842236749289 0 0 0
204 1 10.51789218118316 14.213889145391938 32.08716650590634 0 0 0
205 1 -4.397014092838864 19.384141657214677 -26.827917982278354 0 0 0
206 1 1.2729887390849157 -4.878262199870434 27.618016944088993 0 0 0
207 1 -9.595688278598566 5.267101593905643 10.44122193029208 0 0 0
208 1 -5.753207032453831 -14.150594451534838 27.39763263491804 0 0 0
209 1 -11.19532197303852 0.22359914156776028 -4.923069176693943 0 0 0
210 1 -16.80946107805216 3.3876611773798544 41.05352055796119 0 0 0
211 1 -5.391992938421664 16.77468394710435 30.28274745693558 0 0 0
212 1 -15.14539651346644 11.320798169505224 -28.362912814301865 0 0 0
213 1 1.8097320114307713 16.16591611698545 -48.61955456371398 0 0 0
214 1 11.07398185463342 0.4130308238850091 -45.47735741151374 0 0 0
215 1 -6.02790062596458 9.074179413297298 -25.666501780816585 0 0 0
216 1 9.241827926245438 7.401956407074795 11.703334265250398 0 0 0
217 1 -0.8244015745932245 -15.717264188321895 -0.14803281526455692 0 0 0
218 1 4.804989539461673 -2.540810267692809 41.50457721739289 0 0 0
219 1 -13.028282911064235 -6.350886256597416 -48.363286581990906 0 0 0
220 1 -16.703033408477452 -7.882496280540943 -2.7874676290841194 0 0 0
221 1 -5.258678433140124 17.391574213929275 -49.53046622664224 0 0 0
222 1 16.581651529568084 7.817257450808427 -38.38506065699507 0 0 0
223 1 -2.421045034388566 -10.503892968643406 -47.32280997434762 0 0 0
224 1 -5.189131770836717 -13.73767245269272 -22.652281016415117 0 0 0
225 1 -6.754817155541302 -8.211933182651146 -44.9025020445243 0 0 0
226 1 13.165502861684885 -7.393403662086186 47.66162829364727 0 0 0
227 1 -12.887508716847519 -0.3590040562483523 15.547066584949874 0 0 0
228 1 -0.18076269895805197 1.9213186120248018 29.004780752120908 0 0 0
229 1 -6.659959641592559 -13.941696246127457 4.777978339594782 0 0 0
230 1 1.3927814277786688 8.47745667606474 1.5358865501060563 0 0 0
231 1 5.45809905298897 14.27078358562234 22.649308886681368 0 0 0
232 1 -13.22621661854266 -13.022707846491928 18.373060025448467 0 0 0
233 1 -1.5920609150044882 2.23220151953036 -8.47265313308344 0 0 0
234 1 0.047516906656102975 -1.3833498309288856 -24.901521054516323 0 0 0
235 1 -7.945745302338967 15.858703589001067 43.0780508523239 0 0 0
236 1 5.1202700031549995 16.377943026077908 -39.77890177153931 0 0 0
237 1 14.39917029552123 6.855156825322265 36.55190797827761 0 0 0
238 1 11.166956364720573 3.03562185868417 49.24144726211273 0 0 0
239 1 0.40165373142885485 -9.405735875203153 -5.507136348405453 0 0 0
240 1 16.62375693983573 -4.517112180831429 2.238941915444535 0 0 0
241 1 11.958709150533522 -9.975306983094342 -37.46116216641905 0 0 0
242 1 -3.9010124019817525 -4.315440107283852 -24.004707799295293 0 0 0
243 1 -18.849593102396277 -5.111271974216807 37.12982334528576 0 0 0
244 1 16.376385687094356 -2.085757005068359 -38.294960459831614 0 0 0
245 1 -9.360179356001401 3.4655636844530555 14.322111506165058 0 0 0
246 1 4.691233646446484 5.563895826024886 -19.007129999346628 0 0 0
247 1 0.1447986346412442 -6.369347584605844 -24.062136176071192 0 0 0
248 1 -4.929084491417317 -3.123047250845957 -22.637862420006595 0 0 0
249 1 10.178522779689413 -9.567641760021282 -8.387651694187731 0 0 0
250 1 11.49519031471349 -0.33638061039912515 -33.87229744525268 0 0 0
251 1 3.3187350553082027 17.980074564917047 -22.216968597945275 0 0 0
252 1 -0.23649026650772242 -14.691909195246133 -17.29461125437851 0 0 0
253 1 11.787459064176055 -8.175508393056461 -14.423905249882445 0 0 0
254 1 -9.030213909703406 -10.805180385152427 -6.666833142129157 0 0 0
255 1 11.086268104187337 6.908027076585231 -41.972309580059864 0 0 0
256 1 -11.44284482646866 0.1070015412322256 -4.062741274974648 0 0 0
257 1 7.002956600395475 18.691582846777322 -26.417735533983326 0 0 0
258 1 -1.1524478630872679 -9.191234907690081 7.287266132089897 0 0 0
259 1 -9.167247186027117 6.076544442249716 21.20610222742245 0 0 0
260 1 4.384054515689634 2.804245195726047 27.372511419175424 0 0 0
261 1 -9.660231913281711 0.48223347425565066 -37.75499546330189 0 0 0
262 1 4.240812204890329 -4.669272408201019 8.846588413625298 0 0 0
263 1 -6.155412879844855 -14.024271552462258 35.17004441710657 0 0 0
264 1 1.1746073240296049 -18.37470503448262 40.83121362646632 0 0 0
265 1 -16.067524774031494 -6.888877147291264 46.60446368931069 0 0 0
266 1 -7.511509502079111 -5.940201443592182 7.585843865566808 0 0 0
267 1 -1.8888605674211227 13.920443353206124 2.2285933383873626 0 0 0
268 1 9.962272564862982 -4.08500234786654 -41.586151482344675 0 0 0
269 1 -15.379185506784909 2.0291874660314946 -38.61564602172731 0 0 0
270 1 -5.265074868344271 -10.113312262163177 -36.0979754413003 0 0 0
271 1 0.5307032263515055 -0.47087471022777194 15.02186300466856 0 0 0
272 1 -11.01939221425885 -2.9249450484872526 1.1214251868060927 0 0 0
273 1 -9.733550264376005 8.220706632463592 13.540929538915371 0 0 0
274 1 -7.038895779773078 17.27862935386534 4.8088760370429995 0 0 0
275 1 9.111821832653053 -17.61045860015343 -47.44423194669384 0 0 0
276 1 1.9174687666434167 -13.102439024067689 -31.73169376409226 0 0 0
277 1 -5.8308372394325385 1.1185168573253392 -2.7179473325228045 0 0 0
278 1 2.5095477805051694 17.969546950408045 35.438988770097026 0 0 0
279 1 9.233703608267803 -9.143455843042329 14.844114968946258 0 0 0
280 1 -5.983886768102593 -11.184911500283011 37.98103685862432 0 0 0
281 1 11.266510650173998 -3.755502525603166 3.1726304689294835 0 0 0
282 1 8.960116519108468 -7.321663343963056 -37.98955496772638 0 0 0
283 1 3.819862969135805 0.43692226542016854 -41.618712708176446 0 0 0
284 1 5.718205471391883 -14.120642316583844 -14.088537061628202 0 0 0
285 1 5.5830420859079055 -5.811662145802593 8.485788739512579 0 0 0
286 1 8.260537995146837 -5.13791556709349 17.632659649305353 0 0 0
287 1 18.10232452959862 5.768368963975629 -27.55705615391818 0 0 0
288 1 19.422888438879923 0.4859922549156437 20.179570918055063 0 0 0
289 1 -16.78063209950022 7.916303699797162 23.29070622720323 0 0 0
290 1 15.529970841263406 12.219929114086518 -49.12844886962718 0 0 0
291 1 -0.736060729593067 -10.972682270674353 -44.6773080596129 0 0 0
292 1 3.3933768344080875 -7.515544103232932 15.625642410305161 0 0 0
293 1 8.068795999544115 12.254364337890578 -2.246432682614042 0 0 0
294 1 -10.674331332870914 -3.4867115614408206 -2.9030328397187546 0 0 0
295 1 3.4908251387490097 -9.701893045428157 -49.291036277679275 0 0 0
296 1 -11.179252616678948 -9.698728523076852 -16.32571838159381 0 0 0
297 1 5.460464221174114 14.022165273326529 -23.670628002691373 0 0 0
298 1 7.148769268369662 -10.634906511118126 47.81566909412652 0 0 0
299 1 -14.68147724619204 8.411923250375281 47.985172643319316 0 0 0
300 1 -5.281353492886458 -3.708154942704436 -7.400305083673594 0 0 0
301 1 9.228983479192937 -8.47466520428409 15.754778993201796 0 0 0
302 1 -3.771784502906627 7.617859648362668 -16.58222492159448 0 0 0
303 1 1.0182971046391387 -5.480562329981737 20.472299992326782 0 0 0
304 1 -8.821611585478117 15.174082869279239 -22.973040059661976 0 0 0
305 1 -3.1537130955391177 -4.455996725920585 -29.842431368232905 0 0 0
306 1 15.302397643822431 -12.60280027641114 -38.16061410501628 0 0 0
307 1 13.823494796558975 11.477045766765738 36.77050507942704 0 0 0
308 1 0.7515479720903357 -8.733233077793026 -48.62084616842719 0 0 0
309 1 11.775378897681541 -11.206866666305283 15.479848517794096 0 0 0
310 1 -12.074384573881694 -14.181533229621841 27.42752436428681 0 0 0
311 1 -10.239203772618996 -10.297806407463646 11.919274396225475 0 0 0
312 1 10.897910944604273 1.1892459640229305 -30.857706666392136 0 0 0
313 1 -10.190376821062703 10.336768399149538 25.166211265682335 0 0 0
314 1 -12.594903070756654 -2.535910207096446 47.39287332510244 0 0 0
315 1 12.808789998669546 -2.6664923609544005 -39.34277640159371 0 0 0
316 1 -9.59766814000796 11.991570886220583 -44.170288226646505 0 0 0
317 1 11.986309900873486 13.910503980661979 -15.398992535378312 0 0 0
318 1 5.075915281230543 -9.091868358241333 -17.57874240520352 0 0 0
319 1 0.9516519778182975 -5.585208807878759 23.488914954238055 0 0 0
320 1 -8.722545648330144 0.17528851524707179 -34.814810606099115 0 0 0
321 1 -13.008742683105517 2.061725045583085 28.532102787183646 0 0 0
322 1 12.599606100749043 1.579735289132099 -23.472488892019022 0 0 0
323 1 -0.8483232654856145 -17.7691230167491 -14.12635625532193 0 0 0
324 1 -8.667833278266635 -0.2739078273409561 -8.92213529856975 0 0 0
325 1 18.26881477528662 3.9699282422521733 6.459918830757928 0 0 0
326 1 -11.257684580636063 -7.904746750325312 -37.69658179380772 0 0 0
327 1 13.41991658947427 -11.461880706000086 0.42743564137603585 0 0 0
328 1 -6.435670157166044 -4.308331489706568 -25.318368745650336 0 0 0
329 1 -10.329403258082179 -6.280558587182574 6.629563056225685 0 0 0
330 1 9.226514394034872 -9.972579455921695 -22.857289189872 0 0 0
331 1 9.345445944622831 -11.09000872405712 25.55843692997398 0 0 0
332 1 5.028343547614451 -8.629995243917216 -10.825161291670597 0 0 0
333 1 -15.394331643075837 -12.53192517558668 39.83393478665218 0 0 0
334 1 -4.423216294694328 19.003735072446865 -10.5615934639059 0 0 0
335 1 -3.4805391465688764 -17.42143638311952 -5.203227724508949 0 0 0
336 1 0.6460538043855024 18.226290307113103 23.152979124874335 0 0 0
337 1 1.1405455419516883 9.148923582001089 14.896606730714723 0 0 0
338 1 -13.092270751061044 -1.7945130829673808 -0.9534635818346686 0 0 0
339 1 -9.944967958119218 14.923527890315057 49.33313131301344 0 0 0
340 1 -13.586479888105057 12.03252061830485 -23.564920375852346 0 0 0
341 1 -10.18829658170617 5.299351264396378 -34.50824822509114 0 0 0
342 1 7.94883235727848 -3.974571220564922 -1.5462600866082425 0 0 0
343 1 4.802689750121299 -1.1933697113736415 -42.41184764188335 0 0 0
344 1 -6.369326853365324 -9.276424510998849 27.833109105859464 0 0 0
345 1 -3.5741031279666835 10.048728263959632 22.439830923657794 0 0 0
346 1 1.9396072355749148 -1.021191692455293 -7.921937740371533 0 0 0
347 1 5.420082987016105 15.334762779686024 28.395095457506883 0 0 0
348 1 2.2869904256830864 -2.551915544342208 -25.111384398821453 0 0 0
349 1 17.11226621508238 5.858276889593469 -49.850791506399766 0 0 0
350 1 3.7965124024993315 7.983948806293284 -34.43103157190188 0 0 0
351 1 7.0609484180160536 -6.6399384041502785 6.388103615673302 0 0 0
352 1 -2.838282688911203 16.982847469385177 -23.206455108340112 0 0 0
353 1 -12.356402348892951 5.945722156179009 24.380697251474814 0 0 0
354 1 -13.448517785150798 10.761584970523408 -25.103501032620436 0 0 0
355 1 -5.816742100667554 -1.9844859195800915 16.862874043575886 0 0 0
356 1 5.729620152027167 17.725895120634647 -2.201768733654994 0 0 0
357 1 -2.0508426157994393 11.488156258821558 3.6056050349053024 0 0 0
358 1 -0.23847133863646164 -7.987788463005698 -26.90174434189766 0 0 0
359 1 -15.04686170958302 -12.604752961827792 -20.207573599278728 0 0 0
360 1 -11.475793231034556 6.343166002232191 23.977498791170078 0 0 0
361 1 -4.071126721832494 16.57318616126347 -36.15046911228004 0 0 0
362 1 7.626251963724499 14.416754317663958 -44.02545755450868 0 0 0
363 1 -14.34604745094946 5.980491892425572 -14.681910008509604 0 0 0
364 1 16.455394791651237 5.8202632823122045 -47.087535447016144 0 0 0
365 1 -0.08330320011978287 -0.07688441317383621 -30.490830531572378 0 0 0
366 1 -3.689993183915501 -17.715442067811004 41.41291575106463 0 0 0
367 1 10.750011257245209 -4.5607994797457 -33.39214021497971 0 0 0
368 1 -8.680237265620491 -8.747723283594347 42.53693157459466 0 0 0
369 1 7.283589685002152 15.291835831148475 24.712035280983912 0 0 0
370 1 14.07078699864018 7.717086145522579 -47.332880505050014 0 0 0
371 1 -9.489059350215392 -2.6204990700914053 -6.81967756562851 0 0 0
372 1 -7.32833820736424 -7.380251170778765 0.2964318032825517 0 0 0
373 1 -10.130938976132748 9.308628136901476 25.28274225782731 0 0 0
374 1 10.819650921420966 5.873036322124783 -29.696335121847845 0 0 0
375 1 -2.5217571586937453 16.82743383423771 46.70113008315727 0 0 0
376 1 2.357323049734031 19.52849687986471 38.617649715681395 0 0 0
377 1 -17.668964060800597 -2.278969875666764 43.383249171722326 0 0 0
378 1 16.90753165488482 4.884523649180551 35.47242944383642 0 0 0
379 1 -5.951334976568507 15.913048813079044 26.528503548600014 0 0 0
380 1 -9.430368537749336 -16.204013953080405 47.84372644398535 0 0 0
381 1 3.804137624709 16.141058484158044 6.924858110456199 0 0 0
382 1 -5.56389502508747 7.616313354864861 18.44638803435788 0 0 0
383 1 -17.03619828309687 -7.384544009056196 19.922099481300492 0 0 0
384 1 12.290392886982481 4.633251514580685 -22.354486106128657 0 0 0
385 1 -4.739194281743464 -11.638293262402664 -11.987153003917612 0 0 0
386 1 12.76778526267399 -11.833090238195421 3.1309166239252875 0 0 0
387 1 8.984792488154394 7.407348410881752 38.26185422402892 0 0 0
388 1 -13.206422698314498 -0.34629057177635403 49.73590038704495 0 0 0
389 1 4.511122025787419 18.42788740919339 -6.240784216784306 0 0 0
390 1 4.455867402467817 9.763433276565479 35.05769809012193 0 0 0
391 1 5.892720271783286 -1.0503921383295172 -34.8516722604873 0 0 0
392 1 19.17772719598269 0.060982881142287226 -37.65179160407362 0 0 0
393 1 -5.464595866140256 -3.4627222192765785 5.0691515463726375 0 0 0
394 1 -1.1079840460363712 18.112138266727392 26.76962221822218 0 0 0
395 1 6.816248664081211 0.6912972129375206 46.5806446022264 0 0 0
396 1 -7.642468152401257 -6.962237407901435 -35.810286498540215 0 0 0
397 1 14.605927613845992 1.8254059095985298 -1.0071934438344101 0 0 0
398 1 -11.160084209945092 -7.5353165471625125 -15.163020400871993 0 0 0
399 1 -11.985396794968004 1.4360669727605178 39.944027964930996 0 0 0
400 1 -2.8942814017153715 -4.187518630264101 -49.06404712193834 0 0 0
401 1 -7.775991367071864 -11.086906376800922 -44.08868723273682 0 0 0
402 1 0.5734717569190408 -1.660181461675176 43.325434063247144 0 0 0
403 1 -11.771879602117409 -9.980472787274268 45.48466070344888 0 0 0
404 1 4.217101328176028 -3.1779773455010627 -30.66311459087912 0 0 0
405 1 -0.32546053655699936 9.984762086525912 34.74097060260408 0 0 0
406 1 -3.4028328132828847 8.588907154551197 -15.593633645024916 0 0 0
407 1 7.119731226526078 -18.677275776247157 27.565071535094205 0 0 0
408 1 -5.537083868653088 18.231419547568734 38.67083996938115 0 0 0
409 1 10.949951089429646 -4.172039955934528 1.3111515209596405 0 0 0
410 1 10.098499744245082 5.485201527124829 -25.544834032442807 0 0 0
411 1 -9.966844427383899 7.245708958825894 46.57617746692904 0 0 0
412 1 2.3258746705604167 10.975588108867214 -33.22663567179191 0 0 0
413 1 -16.02629432269665 6.071318437378537 1.6224425526440314 0 0 0
414 1 -12.643207084687056 -14.381472335374669 26.48614839487064 0 0 0
415 1 9.741669031671094 8.231415296081181 -36.50779690896524 0 0 0
416 1 5.382940408486377 -8.920554569419732 -19.401620593574652 0 0 0
417 1 6.785073516324665 -3.2694111313994085 27.517786425313815 0 0 0
418 1 -3.425419900298781 -11.032264321591828 -48.16613248464006 0 0 0
419 1 -11.275467738171791 13.213724546699652 7.671140952813971 0 0 0
420 1 -7.560721052605995 6.961268851049837 -4.886051013547018 0 0 0
421 1 -7.943753873903191 9.328641309090258 -33.81379530011387 0 0 0
422 1 -3.383043605546952 -18.813878427638617 -12.13683330553436 0 0 0
423 1 6.4970535535817255 -4.020924951890914 -49.21416607648794 0 0 0
424 1 -16.995699013115697 -6.71331343553649 23.35272234554995 0 0 0
425 1 -4.31821533679879 -16.245165577272495 18.755356952899774 0 0 0
426 1 8.51372295455715 10.141697241990684 28.763865343650735 0 0 0
427 1 13.713932295196656 10.06008537023332 -0.3629562213844437 0 0 0
428 1 -0.08208512332387485 -19.60466770436832 -39.12526829593129 0 0 0
429 1 8.64630011312957 -1.6339986313292734 43.46250812218642 0 0 0
430 1 -10.250396165182067 1.5916517849972713 -22.771123877154253 0 0 0
431 1 -5.711601332627051 5.116402537150499 -21.556395279037023 0 0 0
432 1 0.6658180899293242 -9.595362557841167 26.85372590872167 0 0 0
433 1 12.228539154039943 5.057561949387921 6.1092084069313515 0 0 0