LAMMPS data file via write_data, version 29 Sep 2021, timestep = 0

3000 atoms
2 atom types

-25.5 76.5 xlo xhi
-25.5 25.5 ylo yhi
-5 5 zlo zhi

Masses

1 1
2 1

Pair Coeffs # lj/cut

1 1 1
2 1 1

Atoms # atomic

1 1 2.737957249739189 16.847496366522975 0 0 0 0
2 1 11.160171698387792 9.005734803623398 0 0 0 0
3 1 -18.91851501488989 -3.4818552543790346 0 0 0 0
4 1 -9.962675883417333 -2.6935725951071703 0 0 0 0
5 1 10.497525944606178 -8.081449003928086 0 0 0 0
6 1 0.33461238273168803 -16.169683428560237 0 0 0 0
7 1 7.266273567111359 4.259842440606953 0 0 0 0
8 1 14.111216717451441 7.219370206454478 0 0 0 0
9 1 -3.3085906241594785 -7.4826202483301145 0 0 0 0
10 1 14.086698384064576 -4.860259026689576 0 0 0 0
11 1 1.2313645059388918 15.54325131491909 0 0 0 0
12 1 -14.548651703888854 0.8108127400329401 0 0 0 0
13 1 10.633176877458194 -8.196220560090719 0 0 0 0
14 1 -3.570545326718385 -10.155306155865688 0 0 0 0
15 1 4.950606722827352 4.847190559304874 0 0 0 0
16 1 0.19009347082585748 -5.099035829817426 0 0 0 0
17 1 -7.284078778365664 16.48797200829162 0 0 0 0
18 1 -1.4527948859393582 -17.123647982777864 0 0 0 0
19 1 -7.723524769639376 -9.280803328976411 0 0 0 0
20 1 8.727359896864442 0.7377866007097964 0 0 0 0
21 1 13.74436247802543 1.5001681733411587 0 0 0 0
22 1 18.306419010416796 -4.01569192484752 0 0 0 0
23 1 -16.37859221379207 5.000662796665289 0 0 0 0
24 1 -11.346935365044947 12.05731968956875 0 0 0 0
25 1 -18.41646557600073 -5.536935844243009 0 0 0 0
26 1 -11.299569062562458 8.14276551275643 0 0 0 0
27 1 -4.23551519598603 13.696101062789609 0 0 0 0
28 1 -1.9593412903879504 -10.649067550268521 0 0 0 0
29 1 -7.8799205775744845 2.1748527056420457 0 0 0 0
30 1 -18.04027294648824 -2.8674116278381163 0 0 0 0
31 1 -13.559066612999452 -7.2325646817835825 0 0 0 0
32 1 10.604577060139071 -8.873350242559495 0 0 0 0
33 1 8.47001514791977 -4.455408912364119 0 0 0 0
34 1 18.08312652543333 3.107512957932201 0 0 0 0
35 1 16.562624926009505 8.03713144177437 0 0 0 0
36 1 -14.739054811531238 0.7057825944879035 0 0 0 0
37 1 -5.882164102924133 18.467922154100577 0 0 0 0
38 1 -11.007823548749007 -8.490383824561903 0 0 0 0
39 1 -4.9486953881330304 -12.723388351836888 0 0 0 0
40 1 -12.808824625242885 2.0845235428235114 0 0 0 0
41 1 -13.194565788467678 -1.0672067762665485 0 0 0 0
42 1 17.116930129526615 4.244686953837373 0 0 0 0
43 1 4.2122631260251 -4.493640896162782 0 0 0 0
44 1 -11.060165069559666 -8.194324089304693 0 0 0 0
45 1 14.11238101968187 -13.212202206818482 0 0 0 0
46 1 11.790600061319118 4.615230590391548 0 0 0 0
47 1 10.213268916221928 14.410674941917264 0 0 0 0
48 1 -7.523860217781673 -13.51868025656728 0 0 0 0
49 1 -11.625226545904402 14.817442984700875 0 0 0 0
50 1 4.961111017019071 -18.607136960424082 0 0 0 0
51 1 -6.072895408641962 12.846866954512365 0 0 0 0
52 1 -18.154247588549858 1.5607792425718081 0 0 0 0
53 1 -14.82049764824123 -8.103973990354676 0 0 0 0
54 1 9.18503961953569 12.96088553637307 0 0 0 0
55 1 18.85898679441725 2.991053770757773 0 0 0 0
56 1 -14.155572836359765 7.287339301448007 0 0 0 0
57 1 -16.275987958664068 9.470378732993442 0 0 0 0
58 1 -9.273372436535253 -17.57054084798812 0 0 0 0
59 1 17.825655097991998 -4.214768048475854 0 0 0 0
60 1 -13.970460963421715 -1.5374122287786633 0 0 0 0
61 1 -0.03687049263942299 -19.682369790823373 0 0 0 0
62 1 18.75674912648124 4.682568770219838 0 0 0 0
63 1 19.327472168639055 -3.175261683378025 0 0 0 0
64 1 5.34763328048756 -2.3274548455734987 0 0 0 0
65 1 12.960369248390371 -15.074042303056476 0 0 0 0
66 1 -12.99241147609074 -3.4596786571013176 0 0 0 0
67 1 9.875319688522872 14.498005003900268 0 0 0 0
68 1 13.47997460210695 -2.0668623885451183 0 0 0 0
69 1 12.14698318026354 -5.653689310724703 0 0 0 0
70 1 -7.845676721933149 17.71133446959375 0 0 0 0
71 1 14.420777873332042 10.013717091648708 0 0 0 0
72 1 -11.120975479074277 9.76512319863081 0 0 0 0
73 1 7.04891487352965 -8.887720587145406 0 0 0 0
74 1 8.902096612799024 17.537771313235993 0 0 0 0
75 1 -1.3886071468650414 -18.320317360721678 0 0 0 0
76 1 -8.228878336133844 17.24180459847758 0 0 0 0
77 1 7.16429888604409 10.37137774302223 0 0 0 0
78 1 -9.566738526135094 11.825591247447576 0 0 0 0
79 1 8.734611435204094 2.6143914752706863 0 0 0 0
80 1 2.9605639646577515 -1.8014459972276562 0 0 0 0
81 1 13.373064377053204 1.0929851332181073 0 0 0 0
82 1 7.659082779502068 6.204275091273836 0 0 0 0
83 1 -8.727924818512015 -10.232424731474568 0 0 0 0
84 1 -3.897036604535316 -17.494212425078363 0 0 0 0
85 1 -10.832904796503906 11.369085158858955 0 0 0 0
86 1 1.1508874693656743 -17.03430237110439 0 0 0 0
87 1 -3.8190025947145188 14.02339063306497 0 0 0 0
88 1 0.8992949597999882 -5.549610641575239 0 0 0 0
89 1 -7.832014853056528 7.326364678948355 0 0 0 0
90 1 -6.378602714454104 -5.1758218301347565 0 0 0 0
91 1 -0.2469508630442192 9.49684481578732 0 0 0 0
92 1 4.0538827255619125 13.606968519094849 0 0 0 0
93 1 12.92529467163854 -4.572453771053093 0 0 0 0
94 1 -17.51921154443138 -5.388427258184379 0 0 0 0
95 1 -11.474019638949084 -3.8480718172379156 0 0 0 0
96 1 -4.744163167078124 -15.150349082029587 0 0 0 0
97 1 10.616770941119999 -3.930792596158941 0 0 0 0
98 1 -11.243327665721685 -6.608077784352041 0 0 0 0
99 1 16.788215915108196 -0.4551147764805279 0 0 0 0
100 1 -6.0279134782161155 8.858171621737153 0 0 0 0
101 1 -5.4650646566716325 -11.341684680125528 0 0 0 0
102 1 -4.09794422988684 5.8513282918610265 0 0 0 0
103 1 16.224188448965634 -0.06473823453520566 0 0 0 0
104 1 -12.244160637373179 12.392167668972242 0 0 0 0
105 1 7.942683765638009 12.686049077979312 0 0 0 0
106 1 -7.871573468610446 -17.53528693576124 0 0 0 0
107 1 6.683230244872732 5.050725576025773 0 0 0 0
108 1 4.7185482944913915 -15.358814483209892 0 0 0 0
109 1 14.510479324734995 -2.373989178973247 0 0 0 0
110 1 15.54622703955799 5.437853851093841 0 0 0 0
111 1 0.6133421047652803 -11.559245209935701 0 0 0 0
112 1 11.071355562224685 -3.7270656897346797 0 0 0 0
113 1 -8.74716033635063 -13.523773045057325 0 0 0 0
114 1 1.6779438507174795 1.2022990087057934 0 0 0 0
115 1 -8.143378099493393 14.244281814547385 0 0 0 0
116 1 12.390444927099367 6.207889759078569 0 0 0 0
117 1 5.460269220853352 10.744794882249455 0 0 0 0
118 1 9.817341114309311 0.05210819656593202 0 0 0 0
119 1 -4.200097482744649 8.961607510671769 0 0 0 0
120 1 -6.982722145962866 1.388892802125259 0 0 0 0
121 1 0.11464019311342355 6.75772565731673 0 0 0 0
122 1 -2.275768491567934 -8.841037782300747 0 0 0 0
123 1 11.026188727014787 -2.8460650624921833 0 0 0 0
124 1 -17.197680472022704 -1.4156932856029343 0 0 0 0
125 1 6.641683274247537 -13.229209721660805 0 0 0 0
126 1 9.800643469114156 -0.5852145983768686 0 0 0 0
127 1 0.6050587913976315 9.223107020008893 0 0 0 0
128 1 12.030660096570223 -0.695756944220399 0 0 0 0
129 1 3.937863420666133 -16.329488864321956 0 0 0 0
130 1 7.007928559094637 -17.744707296483547 0 0 0 0
131 1 -12.006307054313973 9.997338145038736 0 0 0 0
132 1 -12.03154680879393 -14.207215399577848 0 0 0 0
133 1 12.407612797062662 14.748280232189352 0 0 0 0
134 1 10.909465491263877 -4.6134883279975 0 0 0 0
135 1 15.790312977410068 -12.209788668998419 0 0 0 0
136 1 -14.512706899322898 4.9351430800441385 0 0 0 0
137 1 10.386095023893795 -0.9009334169798215 0 0 0 0
138 1 8.706203935996726 5.169552296944687 0 0 0 0
139 1 12.29797195284533 12.014611471451168 0 0 0 0
140 1 14.967726354937874 2.576847440831756 0 0 0 0
141 1 -17.51603644225562 7.975515009823958 0 0 0 0
142 1 -11.696739248790191 12.903445583257565 0 0 0 0
143 1 4.088631190400864 -2.3755829326694737 0 0 0 0
144 1 12.777264710877681 -12.512004278838637 0 0 0 0
145 1 -4.154009271484805 -16.433825845100834 0 0 0 0
146 1 -7.617494029746155 12.777842056368407 0 0 0 0
147 1 -3.4446630177296065 -14.451338981488412 0 0 0 0
148 1 0.822003400336019 15.411149447509622 0 0 0 0
149 1 -2.4385068483829997 16.015399226925986 0 0 0 0
150 1 4.460325792646188 4.695597004469295 0 0 0 0
151 1 -4.300266273459544 5.424741965450689 0 0 0 0
152 1 -14.382111837334051 -0.1536500734061228 0 0 0 0
153 1 -1.079101516436367 -16.459186746021356 0 0 0 0
154 1 5.580118273189349 -14.952182506654497 0 0 0 0
155 1 3.339326932718663 4.067758202584347 0 0 0 0
156 1 11.146806083222295 -15.630159282884634 0 0 0 0
157 1 7.12929328304217 -17.967791910268268 0 0 0 0
158 1 3.0803142409214317 10.841447166559028 0 0 0 0
159 1 7.894106185014408 -3.7573484628262683 0 0 0 0
160 1 17.38338243094431 2.5085168809203964 0 0 0 0
161 1 -2.6723770157771085 5.359495834149186 0 0 0 0
162 1 0.26575387467897826 -13.474628270359071 0 0 0 0
163 1 7.451732450840872 1.2673012825042491 0 0 0 0
164 1 5.333406825239493 -1.4314881998260915 0 0 0 0
165 1 14.313563012664005 8.053553843895696 0 0 0 0
166 1 -12.61065587057297 12.706783280105697 0 0 0 0
167 1 2.3436167567705795 -10.833168956839092 0 0 0 0
168 1 -18.542192912913016 1.3637126709165592 0 0 0 0
169 1 -3.7183903268158396 -14.986222793807379 0 0 0 0
170 1 -15.250215137028235 9.634191966445272 0 0 0 0
171 1 2.1442990666927315 -0.7655860952872722 0 0 0 0
172 1 -2.897209833793905 -13.405676574169508 0 0 0 0
173 1 11.698001395770348 8.309458712259989 0 0 0 0
174 1 16.16295134470004 10.723250373603427 0 0 0 0
175 1 19.372971076226314 1.5248781356610728 0 0 0 0
176 1 -7.82841588735041 -12.185818698343738 0 0 0 0
177 1 -11.083502839823954 -0.43222892118255984 0 0 0 0
178 1 -12.136045076016357 -10.509592606923354 0 0 0 0
179 1 11.470766678206047 -10.824439390946385 0 0 0 0
180 1 -12.242988232636353 -7.90322591918671 0 0 0 0
181 1 10.574480644694756 5.296195384718565 0 0 0 0
182 1 -9.948971508978389 -12.364151399752195 0 0 0 0
183 1 14.68129999687956 -11.390952445283045 0 0 0 0
184 1 -8.328486824561136 -16.878060399032226 0 0 0 0
185 1 6.146332596496833 -18.588050677714893 0 0 0 0
186 1 -3.61213314515172 10.878229435010919 0 0 0 0
187 1 8.333838949135426 -13.168781880833572 0 0 0 0
188 1 19.18484823740313 -0.25567396555825894 0 0 0 0
189 1 -7.16371526343921 -0.5624326227989194 0 0 0 0
190 1 -6.267565929455481 -18.980576358260855 0 0 0 0
191 1 7.036751707567252 -13.31405091719425 0 0 0 0
192 1 -8.03312375584297 -12.710964452806378 0 0 0 0
193 1 -8.836630372720133 2.7533256927287795 0 0 0 0
194 1 0.6316593757977955 16.299129033600508 0 0 0 0
195 1 12.249432277050538 -3.7917196116371628 0 0 0 0
196 1 -7.7302109392966205 -1.6552567582834783 0 0 0 0
197 1 -18.59497822755714 -5.799070552829219 0 0 0 0
198 1 14.808052384670852 -1.0635708370542005 0 0 0 0
199 1 2.9739759224345796 -16.38667164202159 0 0 0 0
200 1 7.638712836261238 -16.153360957351214 0 0 0 0
201 1 5.6746097401131905 13.165902082419912 0 0 0 0
202 1 -10.958817783258304 15.14951677767072 0 0 0 0
203 1 4.00221348926528 -14.79788591843 0 0 0 0
204 1 10.51789218118316 14.213889145391938 0 0 0 0
205 1 -4.397014092838864 19.384141657214677 0 0 0 0
206 1 1.2729887390849157 -4.878262199870434 0 0 0 0
207 1 -9.595688278598566 5.267101593905643 0 0 0 0
208 1 -5.753207032453831 -14.150594451534838 0 0 0 0
209 1 -11.19532197303852 0.22359914156776028 0 0 0 0
210 1 -16.80946107805216 3.3876611773798544 0 0 0 0
211 1 -5.391992938421664 16.77468394710435 0 0 0 0
212 1 -15.14539651346644 11.320798169505224 0 0 0 0
213 1 1.8097320114307713 16.16591611698545 0 0 0 0
214 1 11.07398185463342 0.4130308238850091 0 0 0 0
215 1 -6.02790062596458 9.074179413297298 0 0 0 0
216 1 9.241827926245438 7.401956407074795 0 0 0 0
217 1 -0.8244015745932245 -15.717264188321895 0 0 0 0
218 1 4.804989539461673 -2.540810267692809 0 0 0 0
219 1 -13.028282911064235 -6.350886256597416 0 0 0 0
220 1 -16.703033408477452 -7.882496280540943 0 0 0 0
221 1 -5.258678433140124 17.391574213929275 0 0 0 0
222 1 16.581651529568084 7.817257450808427 0 0 0 0
223 1 -2.421045034388566 -10.503892968643406 0 0 0 0
224 1 -5.189131770836717 -13.73767245269272 0 0 0 0
225 1 -6.754817155541302 -8.211933182651146 0 0 0 0
226 1 13.165502861684885 -7.393403662086186 0 0 0 0
227 1 -12.887508716847519 -0.3590040562483523 0 0 0 0
228 1 -0.18076269895805197 1.9213186120248018 0 0 0 0
229 1 -6.659959641592559 -13.941696246127457 0 0 0 0
230 1 1.3927814277786688 8.47745667606474 0 0 0 0
231 1 5.45809905298897 14.27078358562234 0 0 0 0
232 1 -13.22621661854266 -13.022707846491928 0 0 0 0
233 1 -1.5920609150044882 2.23220151953036 0 0 0 0
234 1 0.047516906656102975 -1.3833498309288856 0 0 0 0
235 1 -7.945745302338967 15.858703589001067 0 0 0 0
236 1 5.1202700031549995 16.377943026077908 0 0 0 0
237 1 14.39917029552123 6.855156825322265 0 0 0 0
238 1 11.166956364720573 3.03562185868417 0 0 0 0
239 1 0.40165373142885485 -9.405735875203153 0 0 0 0
240 1 16.62375693983573 -4.517112180831429 0 0 0 0
241 1 11.958709150533522 -9.975306983094342 0 0 0 0
242 1 -3.9010124019817525 -4.315440107283852 0 0 0 0
243 1 -18.849593102396277 -5.111271974216807 0 0 0 0
244 1 16.376385687094356 -2.085757005068359 0 0 0 0
245 1 -9.360179356001401 3.4655636844530555 0 0 0 0
246 1 4.691233646446484 5.563895826024886 0 0 0 0
247 1 0.1447986346412442 -6.369347584605844 0 0 0 0
248 1 -4.929084491417317 -3.123047250845957 0 0 0 0
249 1 10.178522779689413 -9.567641760021282 0 0 0 0
250 1 11.49519031471349 -0.33638061039912515 0 0 0 0
251 1 3.3187350553082027 17.980074564917047 0 0 0 0
252 1 -0.23649026650772242 -14.691909195246133 0 0 0 0
253 1 11.787459064176055 -8.175508393056461 0 0 0 0
254 1 -9.030213909703406 -10.805180385152427 0 0 0 0
255 1 11.086268104187337 6.908027076585231 0 0 0 0
256 1 -11.44284482646866 0.1070015412322256 0 0 0 0
257 1 7.002956600395475 18.691582846777322 0 0 0 0
258 1 -1.1524478630872679 -9.191234907690081 0 0 0 0
259 1 -9.167247186027117 6.076544442249716 0 0 0 0
260 1 4.384054515689634 2.804245195726047 0 0 0 0
261 1 -9.660231913281711 0.48223347425565066 0 0 0 0
262 1 4.240812204890329 -4.669272408201019 0 0 0 0
263 1 -6.155412879844855 -14.024271552462258 0 0 0 0
264 1 1.1746073240296049 -18.37470503448262 0 0 0 0
265 1 -16.067524774031494 -6.888877147291264 0 0 0 0
266 1 -7.511509502079111 -5.940201443592182 0 0 0 0
267 1 -1.8888605674211227 13.920443353206124 0 0 0 0
268 1 9.962272564862982 -4.08500234786654 0 0 0 0
269 1 -15.379185506784909 2.0291874660314946 0 0 0 0
270 1 -5.265074868344271 -10.113312262163177 0 0 0 0
271 1 0.5307032263515055 -0.47087471022777194 0 0 0 0
272 1 -11.01939221425885 -2.9249450484872526 0 0 0 0
273 1 -9.733550264376005 8.220706632463592 0 0 0 0
274 1 -7.038895779773078 17.27862935386534 0 0 0 0
275 1 9.111821832653053 -17.61045860015343 0 0 0 0
276 1 1.9174687666434167 -13.102439024067689 0 0 0 0
277 1 -5.8308372394325385 1.1185168573253392 0 0 0 0
278 1 2.5095477805051694 17.969546950408045 0 0 0 0
279 1 9.233703608267803 -9.143455843042329 0 0 0 0
280 1 -5.983886768102593 -11.184911500283011 0 0 0 0
281 1 11.266510650173998 -3.755502525603166 0 0 0 0
282 1 8.960116519108468 -7.321663343963056 0 0 0 0
283 1 3.819862969135805 0.43692226542016854 0 0 0 0
284 1 5.718205471391883 -14.120642316583844 0 0 0 0
285 1 5.5830420859079055 -5.811662145802593 0 0 0 0
286 1 8.260537995146837 -5.13791556709349 0 0 0 0
287 1 18.10232452959862 5.768368963975629 0 0 0 0
288 1 19.422888438879923 0.4859922549156437 0 0 0 0
289 1 -16.78063209950022 7.916303699797162 0 0 0 0
290 1 15.529970841263406 12.219929114086518 0 0 0 0
291 1 -0.736060729593067 -10.972682270674353 0 0 0 0
292 1 3.3933768344080875 -7.515544103232932 0 0 0 0
293 1 8.068795999544115 12.254364337890578 0 0 0 0
294 1 -10.674331332870914 -3.4867115614408206 0 0 0 0
295 1 3.4908251387490097 -9.701893045428157 0 0 0 0
296 1 -11.179252616678948 -9.698728523076852 0 0 0 0
297 1 5.460464221174114 14.022165273326529 0 0 0 0
298 1 7.148769268369662 -10.634906511118126 0 0 0 0
299 1 -14.68147724619204 8.411923250375281 0 0 0 0
300 1 -5.281353492886458 -3.708154942704436 0 0 0 0
301 1 9.228983479192937 -8.47466520428409 0 0 0 0
302 1 -3.771784502906627 7.617859648362668 0 0 0 0
303 1 1.0182971046391387 -5.480562329981737 0 0 0 0
304 1 -8.821611585478117 15.174082869279239 0 0 0 0
305 1 -3.1537130955391177 -4.455996725920585 0 0 0 0
306 1 15.302397643822431 -12.60280027641114 0 0 0 0
307 1 13.823494796558975 11.477045766765738 0 0 0 0
308 1 0.7515479720903357 -8.733233077793026 0 0 0 0
309 1 11.775378897681541 -11.206866666305283 0 0 0 0
310 1 -12.074384573881694 -14.181533229621841 0 0 0 0
311 1 -10.239203772618996 -10.297806407463646 0 0 0 0
312 1 10.897910944604273 1.1892459640229305 0 0 0 0
313 1 -10.190376821062703 10.336768399149538 0 0 0 0
314 1 -12.594903070756654 -2.535910207096446 0 0 0 0
315 1 12.808789998669546 -2.6664923609544005 0 0 0 0
316 1 -9.59766814000796 11.991570886220583 0 0 0 0
317 1 11.986309900873486 13.910503980661979 0 0 0 0
318 1 5.075915281230543 -9.091868358241333 0 0 0 0
319 1 0.9516519778182975 -5.585208807878759 0 0 0 0
320 1 -8.722545648330144 0.17528851524707179 0 0 0 0
321 1 -13.008742683105517 2.061725045583085 0 0 0 0
322 1 12.599606100749043 1.579735289132099 0 0 0 0
323 1 -0.8483232654856145 -17.7691230167491 0 0 0 0
324 1 -8.667833278266635 -0.2739078273409561 0 0 0 0
325 1 18.26881477528662 3.9699282422521733 0 0 0 0
326 1 -11.257684580636063 -7.904746750325312 0 0 0 0
327 1 13.41991658947427 -11.461880706000086 0 0 0 0
328 1 -6.435670157166044 -4.308331489706568 0 0 0 0
329 1 -10.329403258082179 -6.280558587182574 0 0 0 0
330 1 9.226514394034872 -9.972579455921695 0 0 0 0
331 1 9.345445944622831 -11.09000872405712 0 0 0 0
332 1 5.028343547614451 -8.629995243917216 0 0 0 0
333 1 -15.394331643075837 -12.53192517558668 0 0 0 0
334 1 -4.423216294694328 19.003735072446865 0 0 0 0
335 1 -3.4805391465688764 -17.42143638311952 0 0 0 0
336 1 0.6460538043855024 18.226290307113103 0 0 0 0
337 1 1.1405455419516883 9.148923582001089 0 0 0 0
338 1 -13.092270751061044 -1.7945130829673808 0 0 0 0
339 1 -9.944967958119218 14.923527890315057 0 0 0 0
340 1 -13.586479888105057 12.03252061830485 0 0 0 0
341 1 -10.18829658170617 5.299351264396378 0 0 0 0
342 1 7.94883235727848 -3.974571220564922 0 0 0 0
343 1 4.802689750121299 -1.1933697113736415 0 0 0 0
344 1 -6.369326853365324 -9.276424510998849 0 0 0 0
345 1 -3.5741031279666835 10.048728263959632 0 0 0 0
346 1 1.9396072355749148 -1.021191692455293 0 0 0 0
347 1 5.420082987016105 15.334762779686024 0 0 0 0
348 1 2.2869904256830864 -2.551915544342208 0 0 0 0
349 1 17.11226621508238 5.858276889593469 0 0 0 0
350 1 3.7965124024993315 7.983948806293284 0 0 0 0
351 1 7.0609484180160536 -6.6399384041502785 0 0 0 0
352 1 -2.838282688911203 16.982847469385177 0 0 0 0
353 1 -12.356402348892951 5.945722156179009 0 0 0 0
354 1 -13.448517785150798 10.761584970523408 0 0 0 0
355 1 -5.816742100667554 -1.9844859195800915 0 0 0 0
356 1 5.729620152027167 17.725895120634647 0 0 0 0
357 1 -2.0508426157994393 11.488156258821558 0 0 0 0
358 1 -0.23847133863646164 -7.987788463005698 0 0 0 0
359 1 -15.04686170958302 -12.604752961827792 0 0 0 0
360 1 -11.475793231034556 6.343166002232191 0 0 0 0
361 1 -4.071126721832494 16.57318616126347 0 0 0 0
362 1 7.626251963724499 14.416754317663958 0 0 0 0
363 1 -14.34604745094946 5.980491892425572 0 0 0 0
364 1 16.455394791651237 5.8202632823122045 0 0 0 0
365 1 -0.08330320011978287 -0.07688441317383621 0 0 0 0
366 1 -3.689993183915501 -17.715442067811004 0 0 0 0
367 1 10.750011257245209 -4.5607994797457 0 0 0 0
368 1 -8.680237265620491 -8.747723283594347 0 0 0 0
369 1 7.283589685002152 15.291835831148475 0 0 0 0
370 1 14.07078699864018 7.717086145522579 0 0 0 0
371 1 -9.489059350215392 -2.6204990700914053 0 0 0 0
372 1 -7.32833820736424 -7.380251170778765 0 0 0 0
373 1 -10.130938976132748 9.308628136901476 0 0 0 0
374 1 10.819650921420966 5.873036322124783 0 0 0 0
375 1 -2.5217571586937453 16.82743383423771 0 0 0 0
376 1 2.357323049734031 19.52849687986471 0 0 0 0
377 1 -17.668964060800597 -2.278969875666764 0 0 0 0
378 1 16.90753165488482 4.884523649180551 0 0 0 0
379 1 -5.951334976568507 15.913048813079044 0 0 0 0
380 1 -9.430368537749336 -16.204013953080405 0 0 0 0
381 1 3.804137624709 16.141058484158044 0 0 0 0
382 1 -5.56389502508747 7.616313354864861 0 0 0 0
383 1 -17.03619828309687 -7.384544009056196 0 0 0 0
384 1 12.290392886982481 4.633251514580685 0 0 0 0
385 1 -4.739194281743464 -11.638293262402664 0 0 0 0
386 1 12.76778526267399 -11.833090238195421 0 0 0 0
387 1 8.984792488154394 7.407348410881752 0 0 0 0
388 1 -13.206422698314498 -0.34629057177635403 0 0 0 0
389 1 4.511122025787419 18.42788740919339 0 0 0 0
390 1 4.455867402467817 9.763433276565479 0 0 0 0
391 1 5.892720271783286 -1.0503921383295172 0 0 0 0
392 1 19.17772719598269 0.060982881142287226 0 0 0 0
393 1 -5.464595866140256 -3.4627222192765785 0 0 0 0
394 1 -1.1079840460363712 18.112138266727392 0 0 0 0
395 1 6.816248664081211 0.6912972129375206 0 0 0 0
396 1 -7.642468152401257 -6.962237407901435 0 0 0 0
397 1 14.605927613845992 1.8254059095985298 0 0 0 0
398 1 -11.160084209945092 -7.5353165471625125 0 0 0 0
399 1 -11.985396794968004 1.4360669727605178 0 0 0 0
400 1 -2.8942814017153715 -4.187518630264101 0 0 0 0
401 1 -7.775991367071864 -11.086906376800922 0 0 0 0
402 1 0.5734717569190408 -1.660181461675176 0 0 0 0
403 1 -11.771879602117409 -9.980472787274268 0 0 0 0
404 1 4.217101328176028 -3.1779773455010627 0 0 0 0
405 1 -0.32546053655699936 9.984762086525912 0 0 0 0
406 1 -3.4028328132828847 8.588907154551197 0 0 0 0
407 1 7.119731226526078 -18.677275776247157 0 0 0 0
408 1 -5.537083868653088 18.231419547568734 0 0 0 0
409 1 10.949951089429646 -4.172039955934528 0 0 0 0
410 1 10.098499744245082 5.485201527124829 0 0 0 0
411 1 -9.966844427383899 7.245708958825894 0 0 0 0
412 1 2.3258746705604167 10.975588108867214 0 0 0 0
413 1 -16.02629432269665 6.071318437378537 0 0 0 0
414 1 -12.643207084687056 -14.381472335374669 0 0 0 0
415 1 9.741669031671094 8.231415296081181 0 0 0 0
416 1 5.382940408486377 -8.920554569419732 0 0 0 0
417 1 6.785073516324665 -3.2694111313994085 0 0 0 0
418 1 -3.425419900298781 -11.032264321591828 0 0 0 0
419 1 -11.275467738171791 13.213724546699652 0 0 0 0
420 1 -7.560721052605995 6.961268851049837 0 0 0 0
421 1 -7.943753873903191 9.328641309090258 0 0 0 0
422 1 -3.383043605546952 -18.813878427638617 0 0 0 0
423 1 6.4970535535817255 -4.020924951890914 0 0 0 0
424 1 -16.995699013115697 -6.71331343553649 0 0 0 0
425 1 -4.31821533679879 -16.245165577272495 0 0 0 0
426 1 8.51372295455715 10.141697241990684 0 0 0 0
427 1 13.713932295196656 10.06008537023332 0 0 0 0
428 1 -0.08208512332387485 -19.60466770436832 0 0 0 0
429 1 8.64630011312957 -1.6339986313292734 0 0 0 0
430 1 -10.250396165182067 1.5916517849972713 0 0 0 0
431 1 -5.711601332627051 5.116402537150499 0 0 0 0
432 1 0.6658180899293242 -9.595362557841167 0 0 0 0
433 1 12.228539154039943 5.057561949387921 0 0 0 0
434 1 -9.01372188190637 -13.623669200401599 0 0 0 0
435 1 -11.545429169920007 -4.028058845562887 0 0 0 0
436 1 4.226009223715405 -13.462977015163274 0 0 0 0
437 1 15.360477657690865 3.5479928103964724 0 0 0 0
438 1 -7.433046152551215 -7.206685928258434 0 0 0 0
439 1 -2.0495969904817635 -7.576619026985307 0 0 0 0
440 1 12.018198478975421 -10.138163860020304 0 0 0 0
441 1 -0.7620365269305367 -7.547908121509435 0 0 0 0
442 1 0.3226339352888239 -17.491449600780125 0 0 0 0
443 1 13.102522358811704 14.093284548303714 0 0 0 0
444 1 -17.990056834179004 1.114787953493554 0 0 0 0
445 1 4.745291594762957 -5.884166818989518 0 0 0 0
446 1 -7.35160216100123 1.622480052347516 0 0 0 0
447 1 16.637663411273465 -10.791046726885739 0 0 0 0
448 1 -11.147684152772504 0.8724443525413221 0 0 0 0
449 1 15.722754781936644 12.33962000922282 0 0 0 0
450 1 -5.329400983326789 -11.24232677335028 0 0 0 0
451 1 -14.641486683227814 0.5333149901280692 0 0 0 0
452 1 4.631859541233567 7.6633095125031225 0 0 0 0
453 1 -13.391229618988572 13.603793659062958 0 0 0 0
454 1 1.18843074012009 13.955449198351914 0 0 0 0
455 1 6.7017375988428185 -3.8961762487404847 0 0 0 0
456 1 3.989145021880578 5.5603827468866385 0 0 0 0
457 1 9.564740187285814 -5.411672287346644 0 0 0 0
458 1 3.1253575827578786 7.884893411716863 0 0 0 0
459 1 -10.186819802125367 -9.880414321031614 0 0 0 0
460 1 3.207843202728707 -5.7792917386532245 0 0 0 0
461 1 7.080287145022439 -1.613953607908428 0 0 0 0
462 1 4.58624837202311 1.0763885924017025 0 0 0 0
463 1 15.659429820095852 -11.963013648969593 0 0 0 0
464 1 -5.497996986609884 -4.835353952290189 0 0 0 0
465 1 -11.67630537956781 -3.6645143961834314 0 0 0 0
466 1 -16.52599967854377 7.523402714879907 0 0 0 0
467 1 15.21297722831973 4.5082763696593595 0 0 0 0
468 1 -6.56474653005821 -13.694930688335994 0 0 0 0
469 1 3.774548798694532 -1.1583403410196027 0 0 0 0
470 1 3.743742827206731 1.0856968635160946 0 0 0 0
471 1 11.860227301651719 14.840258860420555 0 0 0 0
472 1 16.821752859662176 3.2003123421223414 0 0 0 0
473 1 -10.58861268246016 -2.8133541079300244 0 0 0 0
474 1 17.837293538189165 -8.607503654718167 0 0 0 0
475 1 -18.134924507762737 6.323798031696953 0 0 0 0
476 1 12.80407867990624 -1.8496268158078308 0 0 0 0
477 1 4.647605561021532 -7.693335911116252 0 0 0 0
478 1 -17.13320558757205 2.21368967658546 0 0 0 0
479 1 -17.397791946957724 -4.689252518438387 0 0 0 0
480 1 -1.1691122786929427 -9.270067992280268 0 0 0 0
481 1 -4.366299074313742 15.611458008927968 0 0 0 0
482 1 8.324973130749992 -2.176591484889663 0 0 0 0
483 1 -14.824224093381419 9.265662538477063 0 0 0 0
484 1 12.706280310035815 -5.546829228078401 0 0 0 0
485 1 -7.361924195365013 -11.859951499784342 0 0 0 0
486 1 6.970494346213755 -6.9015231853823735 0 0 0 0
487 1 -0.2701595706260598 19.42809648785186 0 0 0 0
488 1 -6.998020832891585 -15.736138408880745 0 0 0 0
489 1 -17.316451946886467 2.3921286791526377 0 0 0 0
490 1 3.5276380104607163 9.012041813233886 0 0 0 0
491 1 -4.808346342671824 -13.876981285343405 0 0 0 0
492 1 9.995733830144506 -1.7015167613055162 0 0 0 0
493 1 -4.400964297540934 -7.00694877049278 0 0 0 0
494 1 1.3248082722187071 -13.947368820173372 0 0 0 0
495 1 -0.37330946902433126 5.787754108099151 0 0 0 0
496 1 2.8360809864644345 -13.986860492260595 0 0 0 0
497 1 19.720425568390837 1.1925279447774102 0 0 0 0
498 1 -11.859543785387437 -3.352401006665268 0 0 0 0
499 1 11.333277910637332 -1.5981559183439984 0 0 0 0
500 1 2.29028268823879 12.781141229337614 0 0 0 0
501 2 11.808528716353948 24.94213576076652 0 0 0 0
502 2 19.66531604163596 -16.033288224382925 0 0 0 0
503 2 -23.471334860181127 2.27500493581174 0 0 0 0
504 2 -22.54096699042291 -18.0322080378105 0 0 0 0
505 2 -17.50032155588284 -10.904389722926723 0 0 0 0
506 2 22.82323273053543 19.07250210902305 0 0 0 0
507 2 -14.700690254196846 20.498897713608528 0 0 0 0
508 2 -18.68361710625869 -8.552704889817491 0 0 0 0
509 2 24.604676628534065 22.800095772044777 0 0 0 0
510 2 12.15167459969021 -21.805003006618936 0 0 0 0
511 2 -21.740432881396465 23.544562369605785 0 0 0 0
512 2 -15.049574945843581 21.79388520694053 0 0 0 0
513 2 7.378262056912419 25.450390527001765 0 0 0 0
514 2 13.732404266592305 -25.481491383156502 0 0 0 0
515 2 3.8158586636725147 -24.86343965603199 0 0 0 0
516 2 -19.83411027553217 -15.891400869186688 0 0 0 0
517 2 25.33013617099735 -24.40137404757616 0 0 0 0
518 2 21.968786829369513 -10.599758786661438 0 0 0 0
519 2 19.83468380725695 -25.46925143244176 0 0 0 0
520 2 -24.222592192107157 23.89302725502897 0 0 0 0
521 2 -20.307333581525523 -13.355504699449757 0 0 0 0
522 2 24.5022601303655 -15.51398894703667 0 0 0 0
523 2 -17.725952284981474 21.919946316359542 0 0 0 0
524 2 21.780293739996992 -16.603111870634887 0 0 0 0
525 2 18.517620662235473 23.650470191682906 0 0 0 0
526 2 -21.637292878300553 23.018594402595703 0 0 0 0
527 2 5.557755494982821 -22.803395823716837 0 0 0 0
528 2 -2.349973345571186 -22.002019014908942 0 0 0 0
529 2 1.2608621775921733 -24.689381208358977 0 0 0 0
530 2 21.51287746057514 -23.068520113624874 0 0 0 0
531 2 25.493793816768473 23.19267842764625 0 0 0 0
532 2 21.826303666143822 -8.314283120825088 0 0 0 0
533 2 -22.81156360419074 24.05050436619227 0 0 0 0
534 2 -23.903765312584007 -23.583608599418593 0 0 0 0
535 2 -12.43930802677726 -18.450006045377815 0 0 0 0
536 2 16.42925538212492 12.495207373516266 0 0 0 0
537 2 -20.859357035420537 -9.213694312942074 0 0 0 0
538 2 23.741804299523032 4.504862083590062 0 0 0 0
539 2 22.77276089381089 -13.207657720291827 0 0 0 0
540 2 -16.66932224909278 -18.299040502309353 0 0 0 0
541 2 -21.350919392356147 -8.902227329743202 0 0 0 0
542 2 -14.321720510638189 14.843377703960698 0 0 0 0
543 2 18.964327708568575 -16.544202087933293 0 0 0 0
544 2 20.704723525422025 11.288291768072305 0 0 0 0
545 2 23.970875696498375 -21.49216895177596 0 0 0 0
546 2 -10.970919070519003 -23.23681821289324 0 0 0 0
547 2 24.90719741927795 7.2670258045043 0 0 0 0
548 2 -23.383222955690336 4.171783712539721 0 0 0 0
549 2 -20.954752056605532 19.482184630810366 0 0 0 0
550 2 -16.481103576245303 -16.907805954761713 0 0 0 0
551 2 -19.1149975562538 -16.763927957631616 0 0 0 0
552 2 16.297008727116975 -17.174323344917187 0 0 0 0
553 2 -17.261995328013782 16.644522072348984 0 0 0 0
554 2 -3.127223942720903 21.747194689813625 0 0 0 0
555 2 -12.943418141660942 -25.028706895433697 0 0 0 0
556 2 17.081732786997094 13.682951060208936 0 0 0 0
557 2 -19.21266713538797 24.703455534392717 0 0 0 0
558 2 24.238010031049143 -19.765408157028915 0 0 0 0
559 2 -24.743373461181005 -7.877762069170252 0 0 0 0
560 2 -15.252963520937117 20.442103609881414 0 0 0 0
561 2 9.550559774530377 19.258130532111103 0 0 0 0
562 2 25.332586042039374 16.773608555679033 0 0 0 0
563 2 23.376777290309207 -10.50408177310791 0 0 0 0
564 2 12.624981762433883 -22.931518773749247 0 0 0 0
565 2 24.43700689679804 9.774914484599101 0 0 0 0
566 2 -21.943253814449186 -19.266859447474992 0 0 0 0
567 2 20.126499313687212 -16.926034859114342 0 0 0 0
568 2 -18.411003893199844 -16.742433009782076 0 0 0 0
569 2 21.081549091535408 20.59558143564294 0 0 0 0
570 2 22.333017401319466 -8.976536023652429 0 0 0 0
571 2 14.561309766984223 -17.06674629615934 0 0 0 0
572 2 -3.6274371054616914 -21.33543149467345 0 0 0 0
573 2 -21.980324767753633 20.681628364688542 0 0 0 0
574 2 9.040859209625452 20.720736174946992 0 0 0 0