LAMMPS data file via write_data, version 29 Sep 2021, timestep = 0

36 atoms
2 atom types

-25.5 76.5 xlo xhi
-25.5 25.5 ylo yhi
-50 50 zlo zhi

Masses

1 1
2 1

Pair Coeffs # lj/cut

1 0.01 4
2 0.01 5

Atoms # atomic

1 1 2.737957249739189 16.847496366522975 -10.321419621036114 0 0 0
2 1 11.160171698387792 9.005734803623398 -1.5378887539440242 0 0 0
3 1 -18.91851501488989 -3.4818552543790346 1.1468491289517075 0 0 0
4 1 -9.962675883417333 -2.6935725951071703 22.813485084480362 0 0 0
5 1 10.497525944606178 -8.081449003928086 37.716477451713985 0 0 0
6 1 0.33461238273168803 -16.169683428560237 -9.673459529724653 0 0 0
7 1 7.266273567111359 4.259842440606953 -12.070251797358623 0 0 0
8 1 14.111216717451441 7.219370206454478 39.887649700924584 0 0 0
9 2 11.808528716353948 24.94213576076652 -34.36131136694984 0 0 0
10 2 19.66531604163596 -16.033288224382925 24.558456463067998 0 0 0
11 2 -23.471334860181127 2.27500493581174 -27.435380023641223 0 0 0
12 2 -22.54096699042291 -18.0322080378105 -49.648022511810076 0 0 0
13 2 -17.50032155588284 -10.904389722926723 46.90573876579559 0 0 0
14 2 22.82323273053543 19.07250210902305 32.43714970650019 0 0 0
15 2 -14.700690254196846 20.498897713608528 39.16445611471518 0 0 0
16 2 -18.68361710625869 -8.552704889817491 46.448856543958584 0 0 0
17 2 24.604676628534065 22.800095772044777 -25.079135771412002 0 0 0
18 2 12.15167459969021 -21.805003006618936 18.263662265736457 0 0 0
19 1 53.73795724973919 16.847496366522975 -10.321419621036114 0 0 0
20 1 62.16017169838779 9.005734803623398 -1.5378887539440242 0 0 0
21 1 32.08148498511011 -3.4818552543790346 1.1468491289517075 0 0 0
22 1 41.03732411658267 -2.6935725951071703 22.813485084480362 0 0 0
23 1 61.49752594460618 -8.081449003928086 37.716477451713985 0 0 0
24 1 51.33461238273169 -16.169683428560237 -9.673459529724653 0 0 0
25 1 58.266273567111355 4.259842440606953 -12.070251797358623 0 0 0
26 1 65.11121671745144 7.219370206454478 39.887649700924584 0 0 0
27 2 62.80852871635395 24.94213576076652 -34.36131136694984 0 0 0
28 2 70.66531604163596 -16.033288224382925 24.558456463067998 0 0 0
29 2 27.528665139818873 2.27500493581174 -27.435380023641223 0 0 0
30 2 28.45903300957709 -18.0322080378105 -49.648022511810076 0 0 0
31 2 33.49967844411716 -10.904389722926723 46.90573876579559 0 0 0
32 2 73.82323273053544 19.07250210902305 32.43714970650019 0 0 0
33 2 36.29930974580316 20.498897713608528 39.16445611471518 0 0 0
34 2 32.316382893741306 -8.552704889817491 46.448856543958584 0 0 0
35 2 75.60467662853407 22.800095772044777 -25.079135771412002 0 0 0
36 2 63.15167459969021 -21.805003006618936 18.263662265736457 0 0 0

Velocities

1 0 0 0
2 0 0 0
3 0 0 0
4 0 0 0
5 0 0 0
6 0 0 0
7 0 0 0
8 0 0 0
9 0 0 0
10 0 0 0
11 0 0 0
12 0 0 0
13 0 0 0
14 0 0 0
15 0 0 0
16 0 0 0
17 0 0 0
18 0 0 0
19 0 0 0
20 0 0 0
21 0 0 0
22 0 0 0
23 0 0 0
24 0 0 0
25 0 0 0
26 0 0 0
27 0 0 0
28 0 0 0
29 0 0 0
30 0 0 0
31 0 0 0
32 0 0 0
33 0 0 0
34 0 0 0
35 0 0 0
36 0 0 0
