LAMMPS data file via write_data, version 29 Sep 2021, timestep = 0

24871 atoms
4 atom types
7514 bonds
1 bond types
3757 angles
1 angle types

-35.699999999999996 35.699999999999996 xlo xhi
-35.699999999999996 35.699999999999996 ylo yhi
-35.699999999999996 35.699999999999996 zlo zhi

Masses

1 15.9994
2 1.008
3 12.011
4 12.011

Pair Coeffs # lj/cut/tip4p/cut

1 0.185199 3.1589
2 0 0
3 0.07 3.55
4 0.07 3.55

Bond Coeffs # harmonic

1 0 0.9572

Angle Coeffs # harmonic

1 0 104.52

Atoms # full

1 0 3 0 -35.699999999999996 -35.699999999999996 28.56 0 0 0
2 0 3 0 -35.699999999999996 -33.915 30.345 0 0 0
3 0 3 0 -33.915 -35.699999999999996 30.345 0 0 0
4 0 3 0 -33.915 -33.915 28.56 0 0 0
5 0 3 0 -34.8075 -34.8075 29.452499999999997 0 0 0
6 0 3 0 -34.8075 -33.0225 31.237499999999997 0 0 0
7 0 3 0 -33.0225 -34.8075 31.237499999999997 0 0 0
8 0 3 0 -33.0225 -33.0225 29.452499999999997 0 0 0
9 0 3 0 -32.129999999999995 -35.699999999999996 28.56 0 0 0
10 0 3 0 -32.129999999999995 -33.915 30.345 0 0 0
11 0 3 0 -30.345 -35.699999999999996 30.345 0 0 0
12 0 3 0 -30.345 -33.915 28.56 0 0 0
13 0 3 0 -31.237499999999997 -34.8075 29.452499999999997 0 0 0
14 0 3 0 -31.237499999999997 -33.0225 31.237499999999997 0 0 0
15 0 3 0 -29.452499999999997 -34.8075 31.237499999999997 0 0 0
16 0 3 0 -29.452499999999997 -33.0225 29.452499999999997 0 0 0
17 0 3 0 -28.56 -35.699999999999996 28.56 0 0 0
18 0 3 0 -28.56 -33.915 30.345 0 0 0
19 0 3 0 -26.775 -35.699999999999996 30.345 0 0 0
20 0 3 0 -26.775 -33.915 28.56 0 0 0
21 0 3 0 -27.6675 -34.8075 29.452499999999997 0 0 0
22 0 3 0 -27.6675 -33.0225 31.237499999999997 0 0 0
23 0 3 0 -25.8825 -34.8075 31.237499999999997 0 0 0
24 0 3 0 -25.8825 -33.0225 29.452499999999997 0 0 0
25 0 3 0 -24.99 -35.699999999999996 28.56 0 0 0
26 0 3 0 -24.99 -33.915 30.345 0 0 0
27 0 3 0 -23.205 -35.699999999999996 30.345 0 0 0
28 0 3 0 -23.205 -33.915 28.56 0 0 0
29 0 3 0 -24.0975 -34.8075 29.452499999999997 0 0 0
30 0 3 0 -24.0975 -33.0225 31.237499999999997 0 0 0
31 0 3 0 -22.3125 -34.8075 31.237499999999997 0 0 0
32 0 3 0 -22.3125 -33.0225 29.452499999999997 0 0 0
33 0 3 0 -21.419999999999998 -35.699999999999996 28.56 0 0 0
34 0 3 0 -21.419999999999998 -33.915 30.345 0 0 0
35 0 3 0 -19.634999999999998 -35.699999999999996 30.345 0 0 0
36 0 3 0 -19.634999999999998 -33.915 28.56 0 0 0
37 0 3 0 -20.5275 -34.8075 29.452499999999997 0 0 0
38 0 3 0 -20.5275 -33.0225 31.237499999999997 0 0 0
39 0 3 0 -18.7425 -34.8075 31.237499999999997 0 0 0
40 0 3 0 -18.7425 -33.0225 29.452499999999997 0 0 0
41 0 3 0 -17.849999999999998 -35.699999999999996 28.56 0 0 0
42 0 3 0 -17.849999999999998 -33.915 30.345 0 0 0
43 0 3 0 -16.064999999999998 -35.699999999999996 30.345 0 0 0
44 0 3 0 -16.064999999999998 -33.915 28.56 0 0 0
45 0 3 0 -16.9575 -34.8075 29.452499999999997 0 0 0
46 0 3 0 -16.9575 -33.0225 31.237499999999997 0 0 0
47 0 3 0 -15.1725 -34.8075 31.237499999999997 0 0 0
48 0 3 0 -15.1725 -33.0225 29.452499999999997 0 0 0
49 0 3 0 -14.28 -35.699999999999996 28.56 0 0 0
50 0 3 0 -14.28 -33.915 30.345 0 0 0
51 0 3 0 -12.495 -35.699999999999996 30.345 0 0 0
52 0 3 0 -12.495 -33.915 28.56 0 0 0
53 0 3 0 -13.3875 -34.8075 29.452499999999997 0 0 0
54 0 3 0 -13.3875 -33.0225 31.237499999999997 0 0 0
55 0 3 0 -11.6025 -34.8075 31.237499999999997 0 0 0
56 0 3 0 -11.6025 -33.0225 29.452499999999997 0 0 0
57 0 3 0 -10.709999999999999 -35.699999999999996 28.56 0 0 0
58 0 3 0 -10.709999999999999 -33.915 30.345 0 0 0
59 0 3 0 -8.924999999999999 -35.699999999999996 30.345 0 0 0
60 0 3 0 -8.924999999999999 -33.915 28.56 0 0 0
61 0 3 0 -9.817499999999999 -34.8075 29.452499999999997 0 0 0
62 0 3 0 -9.817499999999999 -33.0225 31.237499999999997 0 0 0
63 0 3 0 -8.032499999999999 -34.8075 31.237499999999997 0 0 0
64 0 3 0 -8.032499999999999 -33.0225 29.452499999999997 0 0 0
65 0 3 0 -7.14 -35.699999999999996 28.56 0 0 0
66 0 3 0 -7.14 -33.915 30.345 0 0 0
67 0 3 0 -5.3549999999999995 -35.699999999999996 30.345 0 0 0
68 0 3 0 -5.3549999999999995 -33.915 28.56 0 0 0
69 0 3 0 -6.2475 -34.8075 29.452499999999997 0 0 0
70 0 3 0 -6.2475 -33.0225 31.237499999999997 0 0 0
71 0 3 0 -4.4624999999999995 -34.8075 31.237499999999997 0 0 0
72 0 3 0 -4.4624999999999995 -33.0225 29.452499999999997 0 0 0
73 0 3 0 -3.57 -35.699999999999996 28.56 0 0 0
74 0 3 0 -3.57 -33.915 30.345 0 0 0
75 0 3 0 -1.785 -35.699999999999996 30.345 0 0 0
76 0 3 0 -1.785 -33.915 28.56 0 0 0
77 0 3 0 -2.6774999999999998 -34.8075 29.452499999999997 0 0 0
78 0 3 0 -2.6774999999999998 -33.0225 31.237499999999997 0 0 0
79 0 3 0 -0.8925 -34.8075 31.237499999999997 0 0 0
80 0 3 0 -0.8925 -33.0225 29.452499999999997 0 0 0
81 0 3 0 0 -35.699999999999996 28.56 0 0 0
82 0 3 0 0 -33.915 30.345 0 0 0
83 0 3 0 1.785 -35.699999999999996 30.345 0 0 0
84 0 3 0 1.785 -33.915 28.56 0 0 0
85 0 3 0 0.8925 -34.8075 29.452499999999997 0 0 0
86 0 3 0 0.8925 -33.0225 31.237499999999997 0 0 0
87 0 3 0 2.6774999999999998 -34.8075 31.237499999999997 0 0 0
88 0 3 0 2.6774999999999998 -33.0225 29.452499999999997 0 0 0
89 0 3 0 3.57 -35.699999999999996 28.56 0 0 0
90 0 3 0 3.57 -33.915 30.345 0 0 0
91 0 3 0 5.3549999999999995 -35.699999999999996 30.345 0 0 0
92 0 3 0 5.3549999999999995 -33.915 28.56 0 0 0
93 0 3 0 4.4624999999999995 -34.8075 29.452499999999997 0 0 0
94 0 3 0 4.4624999999999995 -33.0225 31.237499999999997 0 0 0
95 0 3 0 6.2475 -34.8075 31.237499999999997 0 0 0
96 0 3 0 6.2475 -33.0225 29.452499999999997 0 0 0
97 0 3 0 7.14 -35.699999999999996 28.56 0 0 0
98 0 3 0 7.14 -33.915 30.345 0 0 0
99 0 3 0 8.924999999999999 -35.699999999999996 30.345 0 0 0
100 0 3 0 8.924999999999999 -33.915 28.56 0 0 0
101 0 3 0 8.032499999999999 -34.8075 29.452499999999997 0 0 0
102 0 3 0 8.032499999999999 -33.0225 31.237499999999997 0 0 0
103 0 3 0 9.817499999999999 -34.8075 31.237499999999997 0 0 0
104 0 3 0 9.817499999999999 -33.0225 29.452499999999997 0 0 0
105 0 3 0 10.709999999999999 -35.699999999999996 28.56 0 0 0
106 0 3 0 10.709999999999999 -33.915 30.345 0 0 0
107 0 3 0 12.495 -35.699999999999996 30.345 0 0 0
108 0 3 0 12.495 -33.915 28.56 0 0 0
109 0 3 0 11.6025 -34.8075 29.452499999999997 0 0 0
110 0 3 0 11.6025 -33.0225 31.237499999999997 0 0 0
111 0 3 0 13.3875 -34.8075 31.237499999999997 0 0 0
112 0 3 0 13.3875 -33.0225 29.452499999999997 0 0 0
113 0 3 0 14.28 -35.699999999999996 28.56 0 0 0
114 0 3 0 14.28 -33.915 30.345 0 0 0
115 0 3 0 16.064999999999998 -35.699999999999996 30.345 0 0 0
116 0 3 0 16.064999999999998 -33.915 28.56 0 0 0
117 0 3 0 15.1725 -34.8075 29.452499999999997 0 0 0
118 0 3 0 15.1725 -33.0225 31.237499999999997 0 0 0
119 0 3 0 16.9575 -34.8075 31.237499999999997 0 0 0
120 0 3 0 16.9575 -33.0225 29.452499999999997 0 0 0
121 0 3 0 17.849999999999998 -35.699999999999996 28.56 0 0 0
122 0 3 0 17.849999999999998 -33.915 30.345 0 0 0
123 0 3 0 19.634999999999998 -35.699999999999996 30.345 0 0 0
124 0 3 0 19.634999999999998 -33.915 28.56 0 0 0
125 0 3 0 18.7425 -34.8075 29.452499999999997 0 0 0
126 0 3 0 18.7425 -33.0225 31.237499999999997 0 0 0
127 0 3 0 20.5275 -34.8075 31.237499999999997 0 0 0
128 0 3 0 20.5275 -33.0225 29.452499999999997 0 0 0
129 0 3 0 21.419999999999998 -35.699999999999996 28.56 0 0 0
130 0 3 0 21.419999999999998 -33.915 30.345 0 0 0
131 0 3 0 23.205 -35.699999999999996 30.345 0 0 0
132 0 3 0 23.205 -33.915 28.56 0 0 0
133 0 3 0 22.3125 -34.8075 29.452499999999997 0 0 0
134 0 3 0 22.3125 -33.0225 31.237499999999997 0 0 0
135 0 3 0 24.0975 -34.8075 31.237499999999997 0 0 0
136 0 3 0 24.0975 -33.0225 29.452499999999997 0 0 0
137 0 3 0 24.99 -35.699999999999996 28.56 0 0 0
138 0 3 0 24.99 -33.915 30.345 0 0 0
139 0 3 0 26.775 -35.699999999999996 30.345 0 0 0
140 0 3 0 26.775 -33.915 28.56 0 0 0
141 0 3 0 25.8825 -34.8075 29.452499999999997 0 0 0
142 0 3 0 25.8825 -33.0225 31.237499999999997 0 0 0
143 0 3 0 27.6675 -34.8075 31.237499999999997 0 0 0
144 0 3 0 27.6675 -33.0225 29.452499999999997 0 0 0
145 0 3 0 28.56 -35.699999999999996 28.56 0 0 0
146 0 3 0 28.56 -33.915 30.345 0 0 0
147 0 3 0 30.345 -35.699999999999996 30.345 0 0 0
148 0 3 0 30.345 -33.915 28.56 0 0 0
149 0 3 0 29.452499999999997 -34.8075 29.452499999999997 0 0 0
150 0 3 0 29.452499999999997 -33.0225 31.237499999999997 0 0 0
151 0 3 0 31.237499999999997 -34.8075 31.237499999999997 0 0 0
152 0 3 0 31.237499999999997 -33.0225 29.452499999999997 0 0 0
153 0 3 0 32.129999999999995 -35.699999999999996 28.56 0 0 0
154 0 3 0 32.129999999999995 -33.915 30.345 0 0 0
155 0 3 0 33.915 -35.699999999999996 30.345 0 0 0
156 0 3 0 33.915 -33.915 28.56 0 0 0
157 0 3 0 33.0225 -34.8075 29.452499999999997 0 0 0
158 0 3 0 33.0225 -33.0225 31.237499999999997 0 0 0
159 0 3 0 34.8075 -34.8075 31.237499999999997 0 0 0
160 0 3 0 34.8075 -33.0225 29.452499999999997 0 0 0
161 0 3 0 -35.699999999999996 -32.129999999999995 28.56 0 0 0
162 0 3 0 -35.699999999999996 -30.345 30.345 0 0 0
163 0 3 0 -33.915 -32.129999999999995 30.345 0 0 0
164 0 3 0 -33.915 -30.345 28.56 0 0 0
165 0 3 0 -34.8075 -31.237499999999997 29.452499999999997 0 0 0
166 0 3 0 -34.8075 -29.452499999999997 31.237499999999997 0 0 0
167 0 3 0 -33.0225 -31.237499999999997 31.237499999999997 0 0 0
168 0 3 0 -33.0225 -29.452499999999997 29.452499999999997 0 0 0
169 0 3 0 -32.129999999999995 -32.129999999999995 28.56 0 0 0
170 0 3 0 -32.129999999999995 -30.345 30.345 0 0 0
171 0 3 0 -30.345 -32.129999999999995 30.345 0 0 0
172 0 3 0 -30.345 -30.345 28.56 0 0 0
173 0 3 0 -31.237499999999997 -31.237499999999997 29.452499999999997 0 0 0
174 0 3 0 -31.237499999999997 -29.452499999999997 31.237499999999997 0 0 0
175 0 3 0 -29.452499999999997 -31.237499999999997 31.237499999999997 0 0 0
176 0 3 0 -29.452499999999997 -29.452499999999997 29.452499999999997 0 0 0
177 0 3 0 -28.56 -32.129999999999995 28.56 0 0 0
178 0 3 0 -28.56 -30.345 30.345 0 0 0
179 0 3 0 -26.775 -32.129999999999995 30.345 0 0 0
180 0 3 0 -26.775 -30.345 28.56 0 0 0
181 0 3 0 -27.6675 -31.237499999999997 29.452499999999997 0 0 0
182 0 3 0 -27.6675 -29.452499999999997 31.237499999999997 0 0 0
183 0 3 0 -25.8825 -31.237499999999997 31.237499999999997 0 0 0
184 0 3 0 -25.8825 -29.452499999999997 29.452499999999997 0 0 0
185 0 3 0 -24.99 -32.129999999999995 28.56 0 0 0
186 0 3 0 -24.99 -30.345 30.345 0 0 0
187 0 3 0 -23.205 -32.129999999999995 30.345 0 0 0
188 0 3 0 -23.205 -30.345 28.56 0 0 0
189 0 3 0 -24.0975 -31.237499999999997 29.452499999999997 0 0 0
190 0 3 0 -24.0975 -29.452499999999997 31.237499999999997 0 0 0
191 0 3 0 -22.3125 -31.237499999999997 31.237499999999997 0 0 0
192 0 3 0 -22.3125 -29.452499999999997 29.452499999999997 0 0 0
193 0 3 0 -21.419999999999998 -32.129999999999995 28.56 0 0 0
194 0 3 0 -21.419999999999998 -30.345 30.345 0 0 0
195 0 3 0 -19.634999999999998 -32.129999999999995 30.345 0 0 0
196 0 3 0 -19.634999999999998 -30.345 28.56 0 0 0
197 0 3 0 -20.5275 -31.237499999999997 29.452499999999997 0 0 0
198 0 3 0 -20.5275 -29.452499999999997 31.237499999999997 0 0 0
199 0 3 0 -18.7425 -31.237499999999997 31.237499999999997 0 0 0
200 0 3 0 -18.7425 -29.452499999999997 29.452499999999997 0 0 0
201 0 3 0 -17.849999999999998 -32.129999999999995 28.56 0 0 0
202 0 3 0 -17.849999999999998 -30.345 30.345 0 0 0
203 0 3 0 -16.064999999999998 -32.129999999999995 30.345 0 0 0
204 0 3 0 -16.064999999999998 -30.345 28.56 0 0 0
205 0 3 0 -16.9575 -31.237499999999997 29.452499999999997 0 0 0
206 0 3 0 -16.9575 -29.452499999999997 31.237499999999997 0 0 0
207 0 3 0 -15.1725 -31.237499999999997 31.237499999999997 0 0 0
208 0 3 0 -15.1725 -29.452499999999997 29.452499999999997 0 0 0
209 0 3 0 -14.28 -32.129999999999995 28.56 0 0 0
210 0 3 0 -14.28 -30.345 30.345 0 0 0
211 0 3 0 -12.495 -32.129999999999995 30.345 0 0 0
212 0 3 0 -12.495 -30.345 28.56 0 0 0
213 0 3 0 -13.3875 -31.237499999999997 29.452499999999997 0 0 0
214 0 3 0 -13.3875 -29.452499999999997 31.237499999999997 0 0 0
215 0 3 0 -11.6025 -31.237499999999997 31.237499999999997 0 0 0
216 0 3 0 -11.6025 -29.452499999999997 29.452499999999997 0 0 0
217 0 3 0 -10.709999999999999 -32.129999999999995 28.56 0 0 0
218 0 3 0 -10.709999999999999 -30.345 30.345 0 0 0
219 0 3 0 -8.924999999999999 -32.129999999999995 30.345 0 0 0
220 0 3 0 -8.924999999999999 -30.345 28.56 0 0 0
221 0 3 0 -9.817499999999999 -31.237499999999997 29.452499999999997 0 0 0
222 0 3 0 -9.817499999999999 -29.452499999999997 31.237499999999997 0 0 0
223 0 3 0 -8.032499999999999 -31.237499999999997 31.237499999999997 0 0 0
224 0 3 0 -8.032499999999999 -29.452499999999997 29.452499999999997 0 0 0
225 0 3 0 -7.14 -32.129999999999995 28.56 0 0 0
226 0 3 0 -7.14 -30.345 30.345 0 0 0
227 0 3 0 -5.3549999999999995 -32.129999999999995 30.345 0 0 0
228 0 3 0 -5.3549999999999995 -30.345 28.56 0 0 0
229 0 3 0 -6.2475 -31.237499999999997 29.452499999999997 0 0 0
230 0 3 0 -6.2475 -29.452499999999997 31.237499999999997 0 0 0
231 0 3 0 -4.4624999999999995 -31.237499999999997 31.237499999999997 0 0 0
232 0 3 0 -4.4624999999999995 -29.452499999999997 29.452499999999997 0 0 0
233 0 3 0 -3.57 -32.129999999999995 28.56 0 0 0
234 0 3 0 -3.57 -30.345 30.345 0 0 0
235 0 3 0 -1.785 -32.129999999999995 30.345 0 0 0
236 0 3 0 -1.785 -30.345 28.56 0 0 0
237 0 3 0 -2.6774999999999998 -31.237499999999997 29.452499999999997 0 0 0
238 0 3 0 -2.6774999999999998 -29.452499999999997 31.237499999999997 0 0 0
239 0 3 0 -0.8925 -31.237499999999997 31.237499999999997 0 0 0
240 0 3 0 -0.8925 -29.452499999999997 29.452499999999997 0 0 0
241 0 3 0 0 -32.129999999999995 28.56 0 0 0
242 0 3 0 0 -30.345 30.345 0 0 0
243 0 3 0 1.785 -32.129999999999995 30.345 0 0 0
244 0 3 0 1.785 -30.345 28.56 0 0 0
245 0 3 0 0.8925 -31.237499999999997 29.452499999999997 0 0 0
246 0 3 0 0.8925 -29.452499999999997 31.237499999999997 0 0 0
247 0 3 0 2.6774999999999998 -31.237499999999997 31.237499999999997 0 0 0
248 0 3 0 2.6774999999999998 -29.452499999999997 29.452499999999997 0 0 0
249 0 3 0 3.57 -32.129999999999995 28.56 0 0 0
250 0 3 0 3.57 -30.345 30.345 0 0 0
251 0 3 0 5.3549999999999995 -32.129999999999995 30.345 0 0 0
252 0 3 0 5.3549999999999995 -30.345 28.56 0 0 0
253 0 3 0 4.4624999999999995 -31.237499999999997 29.452499999999997 0 0 0
254 0 3 0 4.4624999999999995 -29.452499999999997 31.237499999999997 0 0 0
255 0 3 0 6.2475 -31.237499999999997 31.237499999999997 0 0 0
256 0 3 0 6.2475 -29.452499999999997 29.452499999999997 0 0 0
257 0 3 0 7.14 -32.129999999999995 28.56 0 0 0
258 0 3 0 7.14 -30.345 30.345 0 0 0
259 0 3 0 8.924999999999999 -32.129999999999995 30.345 0 0 0
260 0 3 0 8.924999999999999 -30.345 28.56 0 0 0
261 0 3 0 8.032499999999999 -31.237499999999997 29.452499999999997 0 0 0
262 0 3 0 8.032499999999999 -29.452499999999997 31.237499999999997 0 0 0
263 0 3 0 9.817499999999999 -31.237499999999997 31.237499999999997 0 0 0
264 0 3 0 9.817499999999999 -29.452499999999997 29.452499999999997 0 0 0
265 0 3 0 10.709999999999999 -32.129999999999995 28.56 0 0 0
266 0 3 0 10.709999999999999 -30.345 30.345 0 0 0
267 0 3 0 12.495 -32.129999999999995 30.345 0 0 0
268 0 3 0 12.495 -30.345 28.56 0 0 0
269 0 3 0 11.6025 -31.237499999999997 29.452499999999997 0 0 0
270 0 3 0 11.6025 -29.452499999999997 31.237499999999997 0 0 0
271 0 3 0 13.3875 -31.237499999999997 31.237499999999997 0 0 0
272 0 3 0 13.3875 -29.452499999999997 29.452499999999997 0 0 0
273 0 3 0 14.28 -32.129999999999995 28.56 0 0 0
274 0 3 0 14.28 -30.345 30.345 0 0 0
275 0 3 0 16.064999999999998 -32.129999999999995 30.345 0 0 0
276 0 3 0 16.064999999999998 -30.345 28.56 0 0 0
277 0 3 0 15.1725 -31.237499999999997 29.452499999999997 0 0 0
278 0 3 0 15.1725 -29.452499999999997 31.237499999999997 0 0 0
279 0 3 0 16.9575 -31.237499999999997 31.237499999999997 0 0 0
280 0 3 0 16.9575 -29.452499999999997 29.452499999999997 0 0 0
281 0 3 0 17.849999999999998 -32.129999999999995 28.56 0 0 0
282 0 3 0 17.849999999999998 -30.345 30.345 0 0 0
283 0 3 0 19.634999999999998 -32.129999999999995 30.345 0 0 0
284 0 3 0 19.634999999999998 -30.345 28.56 0 0 0
285 0 3 0 18.7425 -31.237499999999997 29.452499999999997 0 0 0
286 0 3 0 18.7425 -29.452499999999997 31.237499999999997 0 0 0
287 0 3 0 20.5275 -31.237499999999997 31.237499999999997 0 0 0
288 0 3 0 20.5275 -29.452499999999997 29.452499999999997 0 0 0
289 0 3 0 21.419999999999998 -32.129999999999995 28.56 0 0 0
290 0 3 0 21.419999999999998 -30.345 30.345 0 0 0
291 0 3 0 23.205 -32.129999999999995 30.345 0 0 0
292 0 3 0 23.205 -30.345 28.56 0 0 0
293 0 3 0 22.3125 -31.237499999999997 29.452499999999997 0 0 0
294 0 3 0 22.3125 -29.452499999999997 31.237499999999997 0 0 0
295 0 3 0 24.0975 -31.237499999999997 31.237499999999997 0 0 0
296 0 3 0 24.0975 -29.452499999999997 29.452499999999997 0 0 0
297 0 3 0 24.99 -32.129999999999995 28.56 0 0 0
298 0 3 0 24.99 -30.345 30.345 0 0 0
299 0 3 0 26.775 -32.129999999999995 30.345 0 0 0
300 0 3 0 26.775 -30.345 28.56 0 0 0
301 0 3 0 25.8825 -31.237499999999997 29.452499999999997 0 0 0
302 0 3 0 25.8825 -29.452499999999997 31.237499999999997 0 0 0
303 0 3 0 27.6675 -31.237499999999997 31.237499999999997 0 0 0
304 0 3 0 27.6675 -29.452499999999997 29.452499999999997 0 0 0
305 0 3 0 28.56 -32.129999999999995 28.56 0 0 0
306 0 3 0 28.56 -30.345 30.345 0 0 0
307 0 3 0 30.345 -32.129999999999995 30.345 0 0 0
308 0 3 0 30.345 -30.345 28.56 0 0 0
309 0 3 0 29.452499999999997 -31.237499999999997 29.452499999999997 0 0 0
310 0 3 0 29.452499999999997 -29.452499999999997 31.237499999999997 0 0 0
311 0 3 0 31.237499999999997 -31.237499999999997 31.237499999999997 0 0 0
312 0 3 0 31.237499999999997 -29.452499999999997 29.452499999999997 0 0 0
313 0 3 0 32.129999999999995 -32.129999999999995 28.56 0 0 0
314 0 3 0 32.129999999999995 -30.345 30.345 0 0 0
315 0 3 0 33.915 -32.129999999999995 30.345 0 0 0
316 0 3 0 33.915 -30.345 28.56 0 0 0
317 0 3 0 33.0225 -31.237499999999997 29.452499999999997 0 0 0
318 0 3 0 33.0225 -29.452499999999997 31.237499999999997 0 0 0
319 0 3 0 34.8075 -31.237499999999997 31.237499999999997 0 0 0
320 0 3 0 34.8075 -29.452499999999997 29.452499999999997 0 0 0
321 0 3 0 -35.699999999999996 -28.56 28.56 0 0 0
322 0 3 0 -35.699999999999996 -26.775 30.345 0 0 0
323 0 3 0 -33.915 -28.56 30.345 0 0 0
324 0 3 0 -33.915 -26.775 28.56 0 0 0
325 0 3 0 -34.8075 -27.6675 29.452499999999997 0 0 0
326 0 3 0 -34.8075 -25.8825 31.237499999999997 0 0 0
327 0 3 0 -33.0225 -27.6675 31.237499999999997 0 0 0
328 0 3 0 -33.0225 -25.8825 29.452499999999997 0 0 0
329 0 3 0 -32.129999999999995 -28.56 28.56 0 0 0
330 0 3 0 -32.129999999999995 -26.775 30.345 0 0 0
331 0 3 0 -30.345 -28.56 30.345 0 0 0
332 0 3 0 -30.345 -26.775 28.56 0 0 0
333 0 3 0 -31.237499999999997 -27.6675 29.452499999999997 0 0 0
334 0 3 0 -31.237499999999997 -25.8825 31.237499999999997 0 0 0
335 0 3 0 -29.452499999999997 -27.6675 31.237499999999997 0 0 0
336 0 3 0 -29.452499999999997 -25.8825 29.452499999999997 0 0 0
337 0 3 0 -28.56 -28.56 28.56 0 0 0
338 0 3 0 -28.56 -26.775 30.345 0 0 0
339 0 3 0 -26.775 -28.56 30.345 0 0 0
340 0 3 0 -26.775 -26.775 28.56 0 0 0
341 0 3 0 -27.6675 -27.6675 29.452499999999997 0 0 0
342 0 3 0 -27.6675 -25.8825 31.237499999999997 0 0 0
343 0 3 0 -25.8825 -27.6675 31.237499999999997 0 0 0
344 0 3 0 -25.8825 -25.8825 29.452499999999997 0 0 0
345 0 3 0 -24.99 -28.56 28.56 0 0 0
346 0 3 0 -24.99 -26.775 30.345 0 0 0
347 0 3 0 -23.205 -28.56 30.345 0 0 0
348 0 3 0 -23.205 -26.775 28.56 0 0 0
349 0 3 0 -24.0975 -27.6675 29.452499999999997 0 0 0
350 0 3 0 -24.0975 -25.8825 31.237499999999997 0 0 0
351 0 3 0 -22.3125 -27.6675 31.237499999999997 0 0 0
352 0 3 0 -22.3125 -25.8825 29.452499999999997 0 0 0
353 0 3 0 -21.419999999999998 -28.56 28.56 0 0 0
354 0 3 0 -21.419999999999998 -26.775 30.345 0 0 0
355 0 3 0 -19.634999999999998 -28.56 30.345 0 0 0
356 0 3 0 -19.634999999999998 -26.775 28.56 0 0 0
357 0 3 0 -20.5275 -27.6675 29.452499999999997 0 0 0
358 0 3 0 -20.5275 -25.8825 31.237499999999997 0 0 0
359 0 3 0 -18.7425 -27.6675 31.237499999999997 0 0 0
360 0 3 0 -18.7425 -25.8825 29.452499999999997 0 0 0
361 0 3 0 -17.849999999999998 -28.56 28.56 0 0 0
362 0 3 0 -17.849999999999998 -26.775 30.345 0 0 0
363 0 3 0 -16.064999999999998 -28.56 30.345 0 0 0
364 0 3 0 -16.064999999999998 -26.775 28.56 0 0 0
365 0 3 0 -16.9575 -27.6675 29.452499999999997 0 0 0
366 0 3 0 -16.9575 -25.8825 31.237499999999997 0 0 0
367 0 3 0 -15.1725 -27.6675 31.237499999999997 0 0 0
368 0 3 0 -15.1725 -25.8825 29.452499999999997 0 0 0
369 0 3 0 -14.28 -28.56 28.56 0 0 0
370 0 3 0 -14.28 -26.775 30.345 0 0 0
371 0 3 0 -12.495 -28.56 30.345 0 0 0
372 0 3 0 -12.495 -26.775 28.56 0 0 0
373 0 3 0 -13.3875 -27.6675 29.452499999999997 0 0 0
374 0 3 0 -13.3875 -25.8825 31.237499999999997 0 0 0
375 0 3 0 -11.6025 -27.6675 31.237499999999997 0 0 0
376 0 3 0 -11.6025 -25.8825 29.452499999999997 0 0 0
377 0 3 0 -10.709999999999999 -28.56 28.56 0 0 0
378 0 3 0 -10.709999999999999 -26.775 30.345 0 0 0
379 0 3 0 -8.924999999999999 -28.56 30.345 0 0 0
380 0 3 0 -8.924999999999999 -26.775 28.56 0 0 0
381 0 3 0 -9.817499999999999 -27.6675 29.452499999999997 0 0 0
382 0 3 0 -9.817499999999999 -25.8825 31.237499999999997 0 0 0
383 0 3 0 -8.032499999999999 -27.6675 31.237499999999997 0 0 0
384 0 3 0 -8.032499999999999 -25.8825 29.452499999999997 0 0 0
385 0 3 0 -7.14 -28.56 28.56 0 0 0
386 0 3 0 -7.14 -26.775 30.345 0 0 0
387 0 3 0 -5.3549999999999995 -28.56 30.345 0 0 0
388 0 3 0 -5.3549999999999995 -26.775 28.56 0 0 0
389 0 3 0 -6.2475 -27.6675 29.452499999999997 0 0 0
390 0 3 0 -6.2475 -25.8825 31.237499999999997 0 0 0
391 0 3 0 -4.4624999999999995 -27.6675 31.237499999999997 0 0 0
392 0 3 0 -4.4624999999999995 -25.8825 29.452499999999997 0 0 0
393 0 3 0 -3.57 -28.56 28.56 0 0 0
394 0 3 0 -3.57 -26.775 30.345 0 0 0
395 0 3 0 -1.785 -28.56 30.345 0 0 0
396 0 3 0 -1.785 -26.775 28.56 0 0 0
397 0 3 0 -2.6774999999999998 -27.6675 29.452499999999997 0 0 0
398 0 3 0 -2.6774999999999998 -25.8825 31.237499999999997 0 0 0
399 0 3 0 -0.8925 -27.6675 31.237499999999997 0 0 0
400 0 3 0 -0.8925 -25.8825 29.452499999999997 0 0 0
401 0 3 0 0 -28.56 28.56 0 0 0
402 0 3 0 0 -26.775 30.345 0 0 0
403 0 3 0 1.785 -28.56 30.345 0 0 0
404 0 3 0 1.785 -26.775 28.56 0 0 0
405 0 3 0 0.8925 -27.6675 29.452499999999997 0 0 0
406 0 3 0 0.8925 -25.8825 31.237499999999997 0 0 0
407 0 3 0 2.6774999999999998 -27.6675 31.237499999999997 0 0 0
408 0 3 0 2.6774999999999998 -25.8825 29.452499999999997 0 0 0
409 0 3 0 3.57 -28.56 28.56 0 0 0
410 0 3 0 3.57 -26.775 30.345 0 0 0
411 0 3 0 5.3549999999999995 -28.56 30.345 0 0 0
412 0 3 0 5.3549999999999995 -26.775 28.56 0 0 0
413 0 3 0 4.4624999999999995 -27.6675 29.452499999999997 0 0 0
414 0 3 0 4.4624999999999995 -25.8825 31.237499999999997 0 0 0
415 0 3 0 6.2475 -27.6675 31.237499999999997 0 0 0
416 0 3 0 6.2475 -25.8825 29.452499999999997 0 0 0
417 0 3 0 7.14 -28.56 28.56 0 0 0
418 0 3 0 7.14 -26.775 30.345 0 0 0
419 0 3 0 8.924999999999999 -28.56 30.345 0 0 0
420 0 3 0 8.924999999999999 -26.775 28.56 0 0 0
421 0 3 0 8.032499999999999 -27.6675 29.452499999999997 0 0 0
422 0 3 0 8.032499999999999 -25.8825 31.237499999999997 0 0 0
423 0 3 0 9.817499999999999 -27.6675 31.237499999999997 0 0 0
424 0 3 0 9.817499999999999 -25.8825 29.452499999999997 0 0 0
425 0 3 0 10.709999999999999 -28.56 28.56 0 0 0
426 0 3 0 10.709999999999999 -26.775 30.345 0 0 0
427 0 3 0 12.495 -28.56 30.345 0 0 0
428 0 3 0 12.495 -26.775 28.56 0 0 0
429 0 3 0 11.6025 -27.6675 29.452499999999997 0 0 0
430 0 3 0 11.6025 -25.8825 31.237499999999997 0 0 0
431 0 3 0 13.3875 -27.6675 31.237499999999997 0 0 0
432 0 3 0 13.3875 -25.8825 29.452499999999997 0 0 0
433 0 3 0 14.28 -28.56 28.56 0 0 0
434 0 3 0 14.28 -26.775 30.345 0 0 0
435 0 3 0 16.064999999999998 -28.56 30.345 0 0 0
436 0 3 0 16.064999999999998 -26.775 28.56 0 0 0
437 0 3 0 15.1725 -27.6675 29.452499999999997 0 0 0
438 0 3 0 15.1725 -25.8825 31.237499999999997 0 0 0
439 0 3 0 16.9575 -27.6675 31.237499999999997 0 0 0
440 0 3 0 16.9575 -25.8825 29.452499999999997 0 0 0
441 0 3 0 17.849999999999998 -28.56 28.56 0 0 0
442 0 3 0 17.849999999999998 -26.775 30.345 0 0 0
443 0 3 0 19.634999999999998 -28.56 30.345 0 0 0
444 0 3 0 19.634999999999998 -26.775 28.56 0 0 0
445 0 3 0 18.7425 -27.6675 29.452499999999997 0 0 0
446 0 3 0 18.7425 -25.8825 31.237499999999997 0 0 0
447 0 3 0 20.5275 -27.6675 31.237499999999997 0 0 0
448 0 3 0 20.5275 -25.8825 29.452499999999997 0 0 0
449 0 3 0 21.419999999999998 -28.56 28.56 0 0 0
450 0 3 0 21.419999999999998 -26.775 30.345 0 0 0
451 0 3 0 23.205 -28.56 30.345 0 0 0
452 0 3 0 23.205 -26.775 28.56 0 0 0
453 0 3 0 22.3125 -27.6675 29.452499999999997 0 0 0
454 0 3 0 22.3125 -25.8825 31.237499999999997 0 0 0
455 0 3 0 24.0975 -27.6675 31.237499999999997 0 0 0
456 0 3 0 24.0975 -25.8825 29.452499999999997 0 0 0
457 0 3 0 24.99 -28.56 28.56 0 0 0
458 0 3 0 24.99 -26.775 30.345 0 0 0
459 0 3 0 26.775 -28.56 30.345 0 0 0
460 0 3 0 26.775 -26.775 28.56 0 0 0
461 0 3 0 25.8825 -27.6675 29.452499999999997 0 0 0
462 0 3 0 25.8825 -25.8825 31.237499999999997 0 0 0
463 0 3 0 27.6675 -27.6675 31.237499999999997 0 0 0
464 0 3 0 27.6675 -25.8825 29.452499999999997 0 0 0
465 0 3 0 28.56 -28.56 28.56 0 0 0
466 0 3 0 28.56 -26.775 30.345 0 0 0
467 0 3 0 30.345 -28.56 30.345 0 0 0
468 0 3 0 30.345 -26.775 28.56 0 0 0
469 0 3 0 29.452499999999997 -27.6675 29.452499999999997 0 0 0
470 0 3 0 29.452499999999997 -25.8825 31.237499999999997 0 0 0
471 0 3 0 31.237499999999997 -27.6675 31.237499999999997 0 0 0
472 0 3 0 31.237499999999997 -25.8825 29.452499999999997 0 0 0
473 0 3 0 32.129999999999995 -28.56 28.56 0 0 0
474 0 3 0 32.129999999999995 -26.775 30.345 0 0 0
475 0 3 0 33.915 -28.56 30.345 0 0 0
476 0 3 0 33.915 -26.775 28.56 0 0 0
477 0 3 0 33.0225 -27.6675 29.452499999999997 0 0 0
478 0 3 0 33.0225 -25.8825 31.237499999999997 0 0 0
479 0 3 0 34.8075 -27.6675 31.237499999999997 0 0 0
480 0 3 0 34.8075 -25.8825 29.452499999999997 0 0 0
481 0 3 0 -35.699999999999996 -24.99 28.56 0 0 0
482 0 3 0 -35.699999999999996 -23.205 30.345 0 0 0
483 0 3 0 -33.915 -24.99 30.345 0 0 0
484 0 3 0 -33.915 -23.205 28.56 0 0 0
485 0 3 0 -34.8075 -24.0975 29.452499999999997 0 0 0
486 0 3 0 -34.8075 -22.3125 31.237499999999997 0 0 0
487 0 3 0 -33.0225 -24.0975 31.237499999999997 0 0 0
488 0 3 0 -33.0225 -22.3125 29.452499999999997 0 0 0
489 0 3 0 -32.129999999999995 -24.99 28.56 0 0 0
490 0 3 0 -32.129999999999995 -23.205 30.345 0 0 0
491 0 3 0 -30.345 -24.99 30.345 0 0 0
492 0 3 0 -30.345 -23.205 28.56 0 0 0
493 0 3 0 -31.237499999999997 -24.0975 29.452499999999997 0 0 0
494 0 3 0 -31.237499999999997 -22.3125 31.237499999999997 0 0 0
495 0 3 0 -29.452499999999997 -24.0975 31.237499999999997 0 0 0
496 0 3 0 -29.452499999999997 -22.3125 29.452499999999997 0 0 0
497 0 3 0 -28.56 -24.99 28.56 0 0 0
498 0 3 0 -28.56 -23.205 30.345 0 0 0
499 0 3 0 -26.775 -24.99 30.345 0 0 0
500 0 3 0 -26.775 -23.205 28.56 0 0 0
501 0 3 0 -27.6675 -24.0975 29.452499999999997 0 0 0
502 0 3 0 -27.6675 -22.3125 31.237499999999997 0 0 0
503 0 3 0 -25.8825 -24.0975 31.237499999999997 0 0 0
504 0 3 0 -25.8825 -22.3125 29.452499999999997 0 0 0
505 0 3 0 -24.99 -24.99 28.56 0 0 0
506 0 3 0 -24.99 -23.205 30.345 0 0 0
507 0 3 0 -23.205 -24.99 30.345 0 0 0
508 0 3 0 -23.205 -23.205 28.56 0 0 0
509 0 3 0 -24.0975 -24.0975 29.452499999999997 0 0 0
510 0 3 0 -24.0975 -22.3125 31.237499999999997 0 0 0
511 0 3 0 -22.3125 -24.0975 31.237499999999997 0 0 0
512 0 3 0 -22.3125 -22.3125 29.452499999999997 0 0 0
513 0 3 0 -21.419999999999998 -24.99 28.56 0 0 0
514 0 3 0 -21.419999999999998 -23.205 30.345 0 0 0
515 0 3 0 -19.634999999999998 -24.99 30.345 0 0 0
516 0 3 0 -19.634999999999998 -23.205 28.56 0 0 0
517 0 3 0 -20.5275 -24.0975 29.452499999999997 0 0 0
518 0 3 0 -20.5275 -22.3125 31.237499999999997 0 0 0
519 0 3 0 -18.7425 -24.0975 31.237499999999997 0 0 0
520 0 3 0 -18.7425 -22.3125 29.452499999999997 0 0 0
521 0 3 0 -17.849999999999998 -24.99 28.56 0 0 0
522 0 3 0 -17.849999999999998 -23.205 30.345 0 0 0
523 0 3 0 -16.064999999999998 -24.99 30.345 0 0 0
524 0 3 0 -16.064999999999998 -23.205 28.56 0 0 0
525 0 3 0 -16.9575 -24.0975 29.452499999999997 0 0 0
526 0 3 0 -16.9575 -22.3125 31.237499999999997 0 0 0
527 0 3 0 -15.1725 -24.0975 31.237499999999997 0 0 0
528 0 3 0 -15.1725 -22.3125 29.452499999999997 0 0 0
529 0 3 0 -14.28 -24.99 28.56 0 0 0
530 0 3 0 -14.28 -23.205 30.345 0 0 0
531 0 3 0 -12.495 -24.99 30.345 0 0 0
532 0 3 0 -12.495 -23.205 28.56 0 0 0
533 0 3 0 -13.3875 -24.0975 29.452499999999997 0 0 0
534 0 3 0 -13.3875 -22.3125 31.237499999999997 0 0 0
535 0 3 0 -11.6025 -24.0975 31.237499999999997 0 0 0
536 0 3 0 -11.6025 -22.3125 29.452499999999997 0 0 0
537 0 3 0 -10.709999999999999 -24.99 28.56 0 0 0
538 0 3 0 -10.709999999999999 -23.205 30.345 0 0 0
539 0 3 0 -8.924999999999999 -24.99 30.345 0 0 0
540 0 3 0 -8.924999999999999 -23.205 28.56 0 0 0
541 0 3 0 -9.817499999999999 -24.0975 29.452499999999997 0 0 0
542 0 3 0 -9.817499999999999 -22.3125 31.237499999999997 0 0 0
543 0 3 0 -8.032499999999999 -24.0975 31.237499999999997 0 0 0
544 0 3 0 -8.032499999999999 -22.3125 29.452499999999997 0 0 0
545 0 3 0 -7.14 -24.99 28.56 0 0 0
546 0 3 0 -7.14 -23.205 30.345 0 0 0
547 0 3 0 -5.3549999999999995 -24.99 30.345 0 0 0
548 0 3 0 -5.3549999999999995 -23.205 28.56 0 0 0
549 0 3 0 -6.2475 -24.0975 29.452499999999997 0 0 0
550 0 3 0 -6.2475 -22.3125 31.237499999999997 0 0 0
551 0 3 0 -4.4624999999999995 -24.0975 31.237499999999997 0 0 0
552 0 3 0 -4.4624999999999995 -22.3125 29.452499999999997 0 0 0
553 0 3 0 -3.57 -24.99 28.56 0 0 0
554 0 3 0 -3.57 -23.205 30.345 0 0 0
555 0 3 0 -1.785 -24.99 30.345 0 0 0
556 0 3 0 -1.785 -23.205 28.56 0 0 0
557 0 3 0 -2.6774999999999998 -24.0975 29.452499999999997 0 0 0
558 0 3 0 -2.6774999999999998 -22.3125 31.237499999999997 0 0 0
559 0 3 0 -0.8925 -24.0975 31.237499999999997 0 0 0
560 0 3 0 -0.8925 -22.3125 29.452499999999997 0 0 0
561 0 3 0 0 -24.99 28.56 0 0 0
562 0 3 0 0 -23.205 30.345 0 0 0
563 0 3 0 1.785 -24.99 30.345 0 0 0
564 0 3 0 1.785 -23.205 28.56 0 0 0
565 0 3 0 0.8925 -24.0975 29.452499999999997 0 0 0
566 0 3 0 0.8925 -22.3125 31.237499999999997 0 0 0