LAMMPS data file via write_data, version 29 Sep 2021, timestep = 0

1500 atoms
2 atom types
1000 bonds
1 bond types
500 angles
1 angle types

-15 15 xlo xhi
-15 15 ylo yhi
-15 15 zlo zhi

Masses

1 15.9994
2 1.008

Pair Coeffs # lj/cut/tip4p/cut

1 0.185199 3.1589
2 0 0

Bond Coeffs # harmonic

1 0 0.9572

Angle Coeffs # harmonic

1 0 104.52

Atoms # full

1 1 1 -1.1128 12.098065625251985 7.639940944561861 -6.887291954970288 0 0 0
2 1 2 0.5564 12.460769911380508 8.508245853621492 -6.705570338955722 0 0 0
3 1 2 0.5564 12.370039207436744 7.44963677350878 -7.786368276298678 0 0 0
4 2 1 -1.1128 -13.72054993110511 7.046304670681257 -5.514674754485251 0 0 0
5 2 2 0.5564 -13.128854436908743 6.447454846716994 -5.05662902479695 0 0 0
6 2 2 0.5564 -13.878789398297052 7.753610095284069 -4.887615869012564 0 0 0
7 3 1 -1.1128 4.2591972081787395 7.455986806002688 14.868007141387102 0 0 0
8 3 2 0.5564 3.6677180677784222 8.017713992604085 -14.628857137058384 0 0 1
9 3 2 0.5564 4.010555833921794 7.603242937021135 13.954214693735505 0 0 0
10 4 1 -1.1128 -4.325765753039996 -7.853314841654641 14.512660385207488 0 0 0
11 4 2 0.5564 -3.3798918273248706 -8.007739275458675 14.5151445141414 0 0 0
12 4 2 0.5564 -4.413862054328771 -6.9054461788491235 14.401720859922237 0 0 0
13 5 1 -1.1128 6.434962543897314 7.518070227647646 4.839217165572214 0 0 0
14 5 2 0.5564 6.2114284489991585 7.753028809015131 3.937353798171231 0 0 0
15 5 2 0.5564 7.393045076904711 7.53092611189007 4.860100764076233 0 0 0
16 6 1 -1.1128 -12.868476028727088 3.5612376638216716 11.555807565549832 0 0 0
17 6 2 0.5564 -12.665130842924812 4.154625017350504 12.280426599306942 0 0 0
18 6 2 0.5564 -12.924663662968847 4.131261947944967 10.787407406929313 0 0 0
19 7 1 -1.1128 -7.06340143059505 -2.212812045273231 7.991158567499692 0 0 0
20 7 2 0.5564 -6.105270247280803 -2.228797761027754 7.975044832592594 0 0 0
21 7 2 0.5564 -7.287431313347533 -1.2813636851008803 8.018326608764166 0 0 0
22 8 1 -1.1128 -0.9945302948538955 -8.070717599657321 -6.822248472653291 0 0 0
23 8 2 0.5564 -0.7701741507502535 -7.572683825932955 -6.034747843553344 0 0 0
24 8 2 0.5564 -0.23943670397452993 -7.956899543313912 -7.401388056487027 0 0 0
25 9 1 -1.1128 -4.513970585224392 -10.252664190377322 -0.4841598369098642 0 0 0
26 9 2 0.5564 -3.835840325902276 -9.933364009877206 -1.0814179939276765 0 0 0
27 9 2 0.5564 -4.3163409513093765 -9.828323762352058 0.3521423019382637 0 0 0
28 10 1 -1.1128 11.892114684516777 12.28483873684541 -12.793807678863846 0 0 0
29 10 2 0.5564 12.356529257932054 11.635636196280862 -13.32426571238209 0 0 0
30 10 2 0.5564 11.540421847349938 12.908254214816807 -13.431137129471013 0 0 0
31 11 1 -1.1128 11.791489077685917 0.05199629030288985 0.6463364626916575 0 0 0
32 11 2 0.5564 12.485012825849074 0.6019312252917022 1.0139326242774067 0 0 0
33 11 2 0.5564 12.142276406724246 -0.24686698862798345 -0.19399235913515667 0 0 0
34 12 1 -1.1128 -5.105719796039525 14.681619339821287 -0.38493159757661627 0 0 0
35 12 2 0.5564 -5.785200516142752 -14.709626908645225 -0.0912389333817061 0 1 0
36 12 2 0.5564 -5.396114983225494 13.825797650435678 -0.06592782058269722 0 0 0
37 13 1 -1.1128 -6.883893408220737 -12.208308769014499 13.071280463723879 0 0 0
38 13 2 0.5564 -7.632030637272344 -12.748994180930309 13.329118652998497 0 0 0
39 13 2 0.5564 -6.531070304448063 -11.876736510845555 13.898383379664189 0 0 0
40 14 1 -1.1128 -12.671459155472064 0.34329623557919 -3.664947995604461 0 0 0
41 14 2 0.5564 -13.304774021891975 -0.3134655862952336 -3.9583875111774662 0 0 0
42 14 2 0.5564 -12.386350053520049 0.033807881882936375 -2.8038711712673416 0 0 0
43 15 1 -1.1128 -6.932296942444136 12.166573545144228 0.7145766939218324 0 0 0
44 15 2 0.5564 -6.146366998678635 11.953829746463459 1.220130607580538 0 0 0
45 15 2 0.5564 -6.983974032948842 13.1231664867842 0.7425581310106115 0 0 0
46 16 1 -1.1128 -1.108907826132948 12.916679000322407 -13.266332049122406 0 0 0
47 16 2 0.5564 -0.6670025971732109 13.742131755425266 -13.06169070991856 0 0 0
48 16 2 0.5564 -1.4239653310911438 13.029385088753678 -14.16441870680085 0 0 0
49 17 1 -1.1128 8.217183939827295 8.133656148001764 9.953056172087598 0 0 0
50 17 2 0.5564 7.863357237472475 8.32255241680265 9.082622128443957 0 0 0
51 17 2 0.5564 7.455742419368756 7.862200643086523 10.467878722363903 0 0 0
52 18 1 -1.1128 -11.554293470088247 -14.688353769102578 5.49055459145809 0 0 0
53 18 2 0.5564 -11.161867017905863 -14.889109778406217 6.341571080344189 0 0 0
54 18 2 0.5564 -11.000955708048332 -13.994443337889711 5.128851435466009 0 0 0
55 19 1 -1.1128 10.75222152975684 3.6322101852835376 7.122922234505731 0 0 0
56 19 2 0.5564 11.063184494195104 4.060437410765755 6.323889044892454 0 0 0
57 19 2 0.5564 11.326835834060207 3.9662600142492597 7.813395008449737 0 0 0
58 20 1 -1.1128 6.411016563145965 14.817278215278424 11.700299685073585 0 0 0
59 20 2 0.5564 7.270094507249564 14.395001961822018 11.747186908509756 0 0 0
60 20 2 0.5564 6.605968789728779 -14.261071067846633 11.524012635253392 0 1 0
61 21 1 -1.1128 -7.714319524554537 -5.574819978622028 -4.353202158993435 0 0 0
62 21 2 0.5564 -8.211815355134316 -5.532993832428456 -5.171296916372023 0 0 0
63 21 2 0.5564 -8.086326061300097 -6.323221390215474 -3.8841286016023675 0 0 0
64 22 1 -1.1128 0.7830305370910113 2.7844344464437594 10.42762562036906 0 0 0
65 22 2 0.5564 0.22051180205655269 2.1320422242118964 10.847729918260196 0 0 0
66 22 2 0.5564 0.19109086263904979 3.2837457569286768 9.862984871280279 0 0 0
67 23 1 -1.1128 -2.844922969527153 10.287737253411184 -7.2494488256185345 0 0 0
68 23 2 0.5564 -3.1658127169644015 10.037240080311346 -6.381801722091617 0 0 0
69 23 2 0.5564 -1.9019949639784468 10.410980216970751 -7.130194950272727 0 0 0
70 24 1 -1.1128 -2.6208176824576914 1.2360503732618255 -1.3264927521838916 0 0 0
71 24 2 0.5564 -2.3837235425676346 0.35510933494085617 -1.0327925379657772 0 0 0
72 24 2 0.5564 -2.6099433731896333 1.766198092901913 -0.5281515448932009 0 0 0
73 25 1 -1.1128 -6.6711456058839405 -9.65953556255516 -10.653461733079805 0 0 0
74 25 2 0.5564 -6.3521974763735045 -10.380187579588227 -10.108059751942989 0 0 0
75 25 2 0.5564 -6.127543483259671 -8.91078350401968 -10.403680577631144 0 0 0
76 26 1 -1.1128 2.269295265918916 8.707049663066856 -14.081738882551283 0 0 0
77 26 2 0.5564 2.7365434918490807 9.524604812997007 -14.26010152490613 0 0 0
78 26 2 0.5564 1.4430942175060153 8.984860954286237 -13.683321698468513 0 0 0
79 27 1 -1.1128 1.05832104921833 0.17898891081860135 13.980128418374031 0 0 0
80 27 2 0.5564 1.4925604947354676 0.30949302732487455 13.135773434062406 0 0 0
81 27 2 0.5564 0.5496041590695762 -0.625271224250669 13.866566543980642 0 0 0
82 28 1 -1.1128 7.254372240566951 1.630212291339902 11.382767040431983 0 0 0
83 28 2 0.5564 6.930259727732184 1.9147278131912069 12.238648198566459 0 0 0
84 28 2 0.5564 8.161706613621629 1.3676062376669469 11.544958083796875 0 0 0
85 29 1 -1.1128 3.6080387104604568 9.922048257803699 -10.068752786368176 0 0 0
86 29 2 0.5564 4.312006535438569 10.461543589529224 -9.705565990845608 0 0 0
87 29 2 0.5564 3.3163909750283476 10.399973278925748 -10.846604193195219 0 0 0
88 30 1 -1.1128 -8.686316454738284 6.749169098412262 -10.85591382564463 0 0 0
89 30 2 0.5564 -8.577865410745062 5.8329727974753 -10.596388741681231 0 0 0
90 30 2 0.5564 -8.588181798639122 6.741755197797735 -11.80924386390524 0 0 0
91 31 1 -1.1128 -12.513988897074016 -6.5076552518114905 -14.740455128267518 0 0 0
92 31 2 0.5564 -11.680799670747799 -6.321621247643782 14.823979007106653 0 0 -1
93 31 2 0.5564 -12.616081133296799 -7.457790201081051 -14.813559792821579 0 0 0
94 32 1 -1.1128 -2.6221882556364657 -14.257789944567294 5.9120890137714035 0 0 0
95 32 2 0.5564 -1.837591213274714 -14.4268613341103 6.435876094898066 0 0 0
96 32 2 0.5564 -3.2538268340475485 -13.896482548694454 6.535798249273342 0 0 0
97 33 1 -1.1128 13.2379558654084 -8.166836933666623 -9.67406446414656 0 0 0
98 33 2 0.5564 12.583064719710695 -7.603292545145008 -10.088872696288284 0 0 0
99 33 2 0.5564 13.5897363597509 -7.637898091141736 -8.956431045771566 0 0 0
100 34 1 -1.1128 -5.822392637575178 11.489183467575408 4.6920480222605585 0 0 0
101 34 2 0.5564 -5.007558248205554 10.986765386759537 4.64566321903873 0 0 0
102 34 2 0.5564 -5.591490825435239 12.353210738795124 4.347570495796053 0 0 0
103 35 1 -1.1128 -10.835433889768126 5.502815020691322 -3.5980503100161934 0 0 0
104 35 2 0.5564 -10.557981350161768 4.730763127961322 -3.1025843442849363 0 0 0
105 35 2 0.5564 -10.076429398658874 6.087581089958309 -3.576042011353593 0 0 0
106 36 1 -1.1128 -3.6483989528932064 -0.2807412527525931 -10.57117529328849 0 0 0
107 36 2 0.5564 -2.7053582692829075 -0.4089739990301808 -10.68414073861549 0 0 0
108 36 2 0.5564 -3.750962436720549 0.6664081755822567 -10.46671367023885 0 0 0
109 37 1 -1.1128 2.3402359209000902 10.376610302109924 2.4255911049396777 0 0 0
110 37 2 0.5564 3.150008954917983 10.887628149264389 2.466321354964343 0 0 0
111 37 2 0.5564 2.3565512097029475 9.837570900378104 3.2178624430757234 0 0 0
112 38 1 -1.1128 13.397193596098202 1.5825471453827702 -10.824483724084821 0 0 0
113 38 2 0.5564 14.234140329890378 2.027988974185069 -10.964599040691793 0 0 0
114 38 2 0.5564 13.355460454476376 1.4426163550316606 -9.877276641498291 0 0 0
115 39 1 -1.1128 14.24688913568513 -2.775689510211425 -10.448966271345387 0 0 0
116 39 2 0.5564 14.786500819080322 -3.4569820100382467 -10.85293448893574 0 0 0
117 39 2 0.5564 14.464068782809733 -1.978326053414274 -10.934319809644359 0 0 0
118 40 1 -1.1128 1.6150025744203769 -7.489600295772976 -0.14465302881894043 0 0 0
119 40 2 0.5564 1.7349020634807542 -7.496491476987944 -1.0954985389542742 0 0 0
120 40 2 0.5564 2.4909766244650076 -7.322531639541133 0.2064610071484254 0 0 0
121 41 1 -1.1128 -1.0406180459462004 13.527281617043286 -10.97791878134708 0 0 0
122 41 2 0.5564 -0.35912677205856036 13.9500257909219 -11.502692606024617 0 0 0
123 41 2 0.5564 -1.8375076028515114 14.021255260717153 -11.1766160685727 0 0 0
124 42 1 -1.1128 -9.312684965275624 -5.624453598202007 3.740379623477118 0 0 0
125 42 2 0.5564 -8.413411920986233 -5.932037244351289 3.863792963258532 0 0 0
126 42 2 0.5564 -9.29575517117549 -4.711038506879746 4.030051492177673 0 0 0
127 43 1 -1.1128 -11.571318125084519 4.575097194157682 3.536267433691473 0 0 0
128 43 2 0.5564 -11.17489678679049 3.8489895094740505 4.02015617378422 0 0 0
129 43 2 0.5564 -10.849690791894947 5.188750034770681 3.3906387218888057 0 0 0
130 44 1 -1.1128 8.803263787453723 -7.824481268959215 -0.6615384416746899 0 0 0
131 44 2 0.5564 9.73251514835416 -8.001478795346415 -0.815468113659984 0 0 0
132 44 2 0.5564 8.740790693408943 -6.868281688400018 -0.6441311685140805 0 0 0
133 45 1 -1.1128 -3.1702623981820257 -8.661279248463408 -13.879979760396978 0 0 0
134 45 2 0.5564 -4.003748676512825 -9.133047809682056 -13.84440436890285 0 0 0
135 45 2 0.5564 -2.787713651304891 -8.913142819505246 -14.721849546257467 0 0 0
136 46 1 -1.1128 12.176857797386225 -2.5685723631761985 -10.669787435922093 0 0 0
137 46 2 0.5564 11.311101333133353 -2.298064874813909 -10.97933872948148 0 0 0
138 46 2 0.5564 12.662655777981287 -1.7485955880412805 -10.568980944121718 0 0 0
139 47 1 -1.1128 13.101726400992723 -2.474281813301833 -11.02002709200889 0 0 0
140 47 2 0.5564 13.870028740357421 -2.5057270748899816 -10.44796654377087 0 0 0
141 47 2 0.5564 13.302055067086805 -3.091817912079973 -11.725038532162056 0 0 0
142 48 1 -1.1128 11.266987085585837 -12.094811034747677 -10.338816618797443 0 0 0
143 48 2 0.5564 11.245368347348025 -12.723771584418225 -9.615994498829378 0 0 0
144 48 2 0.5564 12.195997969023392 -11.885790685428578 -10.447319201831673 0 0 0
145 49 1 -1.1128 -13.066607406547078 -4.140400553823 -7.7299752434082665 0 0 0
146 49 2 0.5564 -12.117930637943791 -4.161257469516715 -7.595409505643512 0 0 0
147 49 2 0.5564 -13.419741094404012 -3.8178293829362127 -6.899452530465815 0 0 0
148 50 1 -1.1128 -11.204495364391786 8.220580504771847 -1.4479183847726225 0 0 0
149 50 2 0.5564 -10.250194104837952 8.193388346043564 -1.5321813809077045 0 0 0
150 50 2 0.5564 -11.385467382963508 9.069816337235423 -1.0422446638416558 0 0 0
151 51 1 -1.1128 -4.80626303757173 -1.6912467252782803 9.26350602778083 0 0 0
152 51 2 0.5564 -3.873713495153206 -1.8528049448816812 9.112572755724663 0 0 0
153 51 2 0.5564 -4.862850443223625 -0.748933097327771 9.42893405019643 0 0 0
154 52 1 -1.1128 12.830631718683039 4.916625593732607 -8.48059176990119 0 0 0
155 52 2 0.5564 13.647445791323296 4.508533929902351 -8.189376171676976 0 0 0
156 52 2 0.5564 12.372618518134365 4.222985437070306 -8.957677485143913 0 0 0
157 53 1 -1.1128 5.189530979126171 11.931761109417153 -7.466464653053036 0 0 0
158 53 2 0.5564 6.10943136954474 12.050781556484164 -7.707603544333004 0 0 0
159 53 2 0.5564 4.864350733358813 12.820427007655416 -7.314628334699821 0 0 0
160 54 1 -1.1128 10.779901452297064 -1.197000115570252 -0.018216740477433213 0 0 0
161 54 2 0.5564 10.854153658856761 -1.0793213016306091 0.9300284106152445 0 0 0
162 54 2 0.5564 10.843330121759198 -0.31006901364557116 -0.37578290614322274 0 0 0
163 55 1 -1.1128 2.7727071493786317 9.21726509971857 7.67591796874869 0 0 0
164 55 2 0.5564 3.7310852747996854 9.218430323600458 7.669548434406879 0 0 0
165 55 2 0.5564 2.531644032861206 10.144838039993527 7.680451491063444 0 0 0
166 56 1 -1.1128 -1.4352070629641047 13.346855786770709 3.8279874988388602 0 0 0
167 56 2 0.5564 -1.188013573223967 13.410211890471897 4.751790477159399 0 0 0
168 56 2 0.5564 -0.7747312249093856 13.86600285783188 3.3667050208987983 0 0 0
169 57 1 -1.1128 -1.8631661301344193 9.720838130343111 6.057695481862394 0 0 0
170 57 2 0.5564 -2.5500261222256593 9.704272869708424 5.3895042641675435 0 0 0
171 57 2 0.5564 -1.0470788986593094 9.797653817118688 5.561082433918135 0 0 0
172 58 1 -1.1128 5.859033060946377 14.746072148590642 13.936989823328977 0 0 0
173 58 2 0.5564 6.189816896558482 13.858277015860988 13.7923094293591 0 0 0
174 58 2 0.5564 6.149748429773106 -14.761254183714858 13.168041990255505 0 1 0
175 59 1 -1.1128 10.239465753580719 -6.570915986938728 1.0891076938491178 0 0 0
176 59 2 0.5564 10.915156177006418 -6.37272661142879 0.4389584931837782 0 0 0
177 59 2 0.5564 10.459648222223024 -6.017899121349243 1.8402505333784327 0 0 0
178 60 1 -1.1128 0.6408326239466675 -12.219134398151896 -2.5013565067712573 0 0 0
179 60 2 0.5564 0.55006674168336 -11.43424705283214 -1.958913910938418 0 0 0
180 60 2 0.5564 0.10822058757536734 -12.037565025871718 -3.2771660969815093 0 0 0
181 61 1 -1.1128 2.343691304546459 11.006719267953516 -1.540026769047282 0 0 0
182 61 2 0.5564 2.9761800506759197 11.691844586640883 -1.761593561940792 0 0 0
183 61 2 0.5564 1.5846262299925267 11.192350852333755 -2.094900327592754 0 0 0
184 62 1 -1.1128 6.701912824052171 11.310858055324122 6.7191704677325435 0 0 0
185 62 2 0.5564 7.104876637436731 10.46044014084591 6.900664533302469 0 0 0
186 62 2 0.5564 6.870501770522053 11.462438211881878 5.78797512744883 0 0 0
187 63 1 -1.1128 9.004420042716994 5.85206803923062 7.066052798744388 0 0 0
188 63 2 0.5564 9.729675756787021 6.203423856640298 7.584785676805104 0 0 0
189 63 2 0.5564 8.330733628275087 6.532700787581916 7.103592316164942 0 0 0
190 64 1 -1.1128 -14.73525792354744 11.34222580033426 0.7834909668702182 0 0 0
191 64 2 0.5564 -14.658317477381834 12.127191470460183 0.23902827350399725 0 0 0
192 64 2 0.5564 -13.888108254657602 11.273383280552432 1.2263472465704464 0 0 0
193 65 1 -1.1128 -0.8966605877954342 -12.948235816635961 6.082781161067816 0 0 0
194 65 2 0.5564 -0.6697791601250969 -13.597902428072006 6.7498558733478395 0 0 0
195 65 2 0.5564 -1.7345141731502367 -12.586413191666256 6.375371824056461 0 0 0
196 66 1 -1.1128 -0.37112205639876594 4.653440166148408 5.558322508705858 0 0 0
197 66 2 0.5564 0.16377243244080641 5.318461309712873 5.994402001942198 0 0 0
198 66 2 0.5564 -0.7877660352394235 5.1192143937628485 4.831696262079715 0 0 0
199 67 1 -1.1128 -9.325366064643376 12.521972127682814 11.211287952592654 0 0 0
200 67 2 0.5564 -9.170141680336114 12.997209630342649 10.393617318056917 0 0 0
201 67 2 0.5564 -8.544565019309182 11.977868842332379 11.324534943616236 0 0 0
202 68 1 -1.1128 11.528177791767055 0.9713162585116142 -10.77129239452837 0 0 0
203 68 2 0.5564 12.461428103100047 1.1791375314437762 -10.705075063611686 0 0 0
204 68 2 0.5564 11.112075270577416 1.804893836028187 -10.996082635911813 0 0 0
205 69 1 -1.1128 -1.3524961258611938 14.335035270547186 -8.413149174181989 0 0 0
206 69 2 0.5564 -1.6234644499215847 14.581722029068889 -9.298729419290222 0 0 0
207 69 2 0.5564 -1.4927701539744405 -14.874132329163851 -7.890243016071299 0 1 0
208 70 1 -1.1128 -1.8118509437817805 -5.868089410169296 0.42269545436655115 0 0 0
209 70 2 0.5564 -1.091362702174916 -5.630553422535797 1.0083608095696965 0 0 0
210 70 2 0.5564 -1.9546779517621846 -5.085440028532177 -0.11170507867435009 0 0 0
211 71 1 -1.1128 11.418434979228712 -2.1982099105549686 -0.95932254281561 0 0 0
212 71 2 0.5564 11.57428793771014 -1.5929032229666575 -0.23279365192863932 0 0 0
213 71 2 0.5564 11.342647779832742 -1.6335862262495666 -1.7300234796446166 0 0 0
214 72 1 -1.1128 9.532038519677798 -4.246346017402235 -8.69905348644663 0 0 0
215 72 2 0.5564 8.733699575321351 -4.525263455671633 -8.248065069130764 0 0 0
216 72 2 0.5564 9.332754451286588 -3.3641651026288724 -9.016175280391924 0 0 0
217 73 1 -1.1128 14.786716129563379 -10.330470376655999 4.25281007668326 0 0 0
218 73 2 0.5564 -14.856712694742502 -11.15582860858221 3.9208893848670447 1 0 0
219 73 2 0.5564 14.990495428936017 -9.689297852729236 3.5702448195769656 0 0 0
220 74 1 -1.1128 3.1028516819606113 14.991218645584654 -14.928663848173331 0 -1 0
221 74 2 0.5564 3.610021776527285 -14.24513319825334 14.791781955350206 0 0 -1
222 74 2 0.5564 3.7586594476716417 14.307468376075288 -14.784008112445445 0 -1 0
223 75 1 -1.1128 7.879360470626594 6.599556056694097 -5.459659194160496 0 0 0
224 75 2 0.5564 8.522338174704005 6.811478483939028 -6.138038967510171 0 0 0
225 75 2 0.5564 8.199982805797108 7.049114562891113 -4.676318906548711 0 0 0
226 76 1 -1.1128 -2.7652730809555424 5.271411819545164 5.569939306689469 0 0 0
227 76 2 0.5564 -2.051054991266087 4.943966765396723 5.0211198310200365 0 0 0
228 76 2 0.5564 -2.588537490882702 6.209102320546464 5.659519405112809 0 0 0
229 77 1 -1.1128 -8.955663670925784 9.720704975645006 6.2249458688385415 0 0 0
230 77 2 0.5564 -8.155970895453109 10.046007759329813 6.641119058488866 0 0 0
231 77 2 0.5564 -9.41479621905656 10.511076451375155 5.936790056648178 0 0 0
232 78 1 -1.1128 9.709803991435898 -12.459811241212327 -12.342203365816818 0 0 0
233 78 2 0.5564 10.627389799167466 -12.319831098308848 -12.580892295267537 0 0 0
234 78 2 0.5564 9.2465218869298 -11.71096536055227 -12.720519473275733 0 0 0
235 79 1 -1.1128 7.632130491918884 3.6524437015555518 -8.706781866760949 0 0 0
236 79 2 0.5564 8.565980769712912 3.4483186121566654 -8.63759251395349 0 0 0
237 79 2 0.5564 7.5623255483440674 4.5607029505213035 -8.408929646657278 0 0 0
238 80 1 -1.1128 -8.342984993348177 -12.858132697166287 -3.257006953421799 0 0 0
239 80 2 0.5564 -9.201967331355174 -12.702218615485847 -2.8615695979206075 0 0 0
240 80 2 0.5564 -8.235835711723547 -12.144176914193078 -3.887332036142168 0 0 0
241 81 1 -1.1128 13.90070390162438 13.58903602258082 -3.1873167302365677 0 0 0
242 81 2 0.5564 13.246154928148112 13.142020064777888 -2.6485468955291234 0 0 0
243 81 2 0.5564 13.547511316925997 13.547999474175914 -4.077313661865596 0 0 0
244 82 1 -1.1128 -6.907254947919373 5.50492738647907 -6.1872789803721355 0 0 0
245 82 2 0.5564 -6.2169953463496475 6.101630274324977 -6.480567074363623 0 0 0
246 82 2 0.5564 -7.646422924738731 5.6886504758845 -6.7690006208189235 0 0 0
247 83 1 -1.1128 8.123797270551123 8.19021021408548 -2.209107181182756 0 0 0
248 83 2 0.5564 8.993018609227542 8.501213131899199 -1.9516930993983137 0 0 0
249 83 2 0.5564 7.801108072635945 8.8564448865132 -2.8178161274813855 0 0 0
250 84 1 -1.1128 -6.558591507033475 -9.044881236084892 14.973497955719964 0 0 -1
251 84 2 0.5564 -7.128018980872811 -9.688781630561307 -14.602620935913473 0 0 0
252 84 2 0.5564 -5.919359817766548 -8.80926457665647 -14.352416607753819 0 0 0
253 85 1 -1.1128 -9.504597742041486 14.207046474788752 -7.719015980618922 0 0 0
254 85 2 0.5564 -8.548285000036602 14.14397287810465 -7.723284572942947 0 0 0
255 85 2 0.5564 -9.682971888623088 -14.85979754756153 -7.592817233763474 0 1 0
256 86 1 -1.1128 9.400684513970806 -11.245974525153022 -3.089584131518523 0 0 0
257 86 2 0.5564 10.347985433838131 -11.107695346413458 -3.044524216453941 0 0 0
258 86 2 0.5564 9.026678475135304 -10.365385704552649 -3.032959486281458 0 0 0
259 87 1 -1.1128 2.978275164450083 -9.836864508380387 10.210886107864834 0 0 0
260 87 2 0.5564 3.4560041898019 -9.045611619023887 9.957460766942908 0 0 0
261 87 2 0.5564 2.656630340111805 -10.198290700432715 9.383577668904518 0 0 0
262 88 1 -1.1128 -10.650488498880714 14.688265620127636 -7.219768560532301 0 0 0
263 88 2 0.5564 -10.235215192143562 14.098398132790564 -7.850747948542909 0 0 0
264 88 2 0.5564 -9.918490137139486 -14.872333701211877 -6.7843044627000415 0 1 0
265 89 1 -1.1128 -8.003029871419255 -12.051550319323312 -8.039851221891706 0 0 0
266 89 2 0.5564 -8.477121909229734 -12.454906191447131 -8.768597638766561 0 0 0
267 89 2 0.5564 -7.495920845993928 -11.346179476729583 -8.444593052261126 0 0 0
268 90 1 -1.1128 3.860494531109439 6.226973761770076 8.844006822024312 0 0 0
269 90 2 0.5564 3.5749761139120677 5.4149034853205364 9.265375614827335 0 0 0
270 90 2 0.5564 4.689098918697276 5.998780174409183 8.419900710234407 0 0 0
271 91 1 -1.1128 6.000102253788107 7.407202777901968 4.757718942895478 0 0 0
272 91 2 0.5564 6.131892489305458 8.326177420468564 4.995726296021125 0 0 0
273 91 2 0.5564 5.529858332242099 7.031256968154069 5.503412540080023 0 0 0
274 92 1 -1.1128 4.2064728993559655 -13.584099900368319 3.1326754832989088 0 0 0
275 92 2 0.5564 3.2565275037238353 -13.457178103497212 3.1276592300830695 0 0 0
276 92 2 0.5564 4.545691193257187 -12.879062360430614 2.5791625612624554 0 0 0
277 93 1 -1.1128 -8.472526721071478 -5.694842399922452 6.0750480846598025 0 0 0
278 93 2 0.5564 -7.665300188051652 -5.843297020147757 5.580197490922105 0 0 0
279 93 2 0.5564 -8.431478141794445 -4.771851351654625 6.329854045062608 0 0 0
280 94 1 -1.1128 -11.120127127375293 7.7527074070022755 0.682451397468226 0 0 0
281 94 2 0.5564 -11.790584054398002 8.136503393456023 0.11524886768784826 0 0 0
282 94 2 0.5564 -11.519964645859677 7.742154172166333 1.5533946370348164 0 0 0
283 95 1 -1.1128 1.4718856532489708 2.27693653288021 -5.12674802405178 0 0 0
284 95 2 0.5564 2.3353956617752982 2.576715470361687 -5.4148688560256915 0 0 0
285 95 2 0.5564 1.0447398072581113 3.0653501967315444 -4.788408166208713 0 0 0
286 96 1 -1.1128 6.280169274184275 -11.047559127837522 -10.192508283081704 0 0 0
287 96 2 0.5564 6.608207364354712 -10.16390353786804 -10.365927917820736 0 0 0
288 96 2 0.5564 5.380670429552612 -10.914463918824092 -9.889669989030281 0 0 0
289 97 1 -1.1128 -0.5224380133574771 10.437220421774473 9.496397536269738 0 0 0
290 97 2 0.5564 0.3011126194161369 10.782428688061884 9.148365686944103 0 0 0
291 97 2 0.5564 -1.0994088053445061 11.20066349289798 9.549150932817914 0 0 0
292 98 1 -1.1128 1.7559058163275676 6.863753921269112 -5.757903112525268 0 0 0
293 98 2 0.5564 2.319014824777483 7.144723373608571 -5.035064976111161 0 0 0
294 98 2 0.5564 1.0402997845990867 7.5012175144537245 -5.766371478245962 0 0 0
295 99 1 -1.1128 -11.113384232368654 0.5124563903782038 -5.745880003764489 0 0 0
296 99 2 0.5564 -10.174080311531904 0.6974044450735917 -5.700792074502864 0 0 0
297 99 2 0.5564 -11.532636048464976 1.3594832769972207 -5.58682999105015 0 0 0
298 100 1 -1.1128 2.518406728020442 0.17871360888447374 -2.145263738296468 0 0 0
299 100 2 0.5564 3.4146221637008214 0.4660999562247382 -1.96432855595028 0 0 0
300 100 2 0.5564 1.99769208899128 0.9827092706909893 -2.11410641175788 0 0 0
301 101 1 -1.1128 -7.261873058977272 -4.127902069391677 -3.5212313791620082 0 0 0
302 101 2 0.5564 -7.01566055625463 -3.2018353521887613 -3.5036132410064633 0 0 0
303 101 2 0.5564 -7.426618204556089 -4.3498977551711535 -2.6035710438507813 0 0 0
304 102 1 -1.1128 -1.8033037610918279 -1.0486746525112602 -3.3083025136022557 0 0 0
305 102 2 0.5564 -0.93314849098743 -0.9717901845600346 -3.7025729087594366 0 0 0
306 102 2 0.5564 -2.045612919567657 -0.14887503264460367 -3.0843148927243242 0 0 0
307 103 1 -1.1128 -6.430989503111361 -12.69696606851147 -4.246583482874584 0 0 0
308 103 2 0.5564 -7.373463922077768 -12.769962874463904 -4.088646799628814 0 0 0
309 103 2 0.5564 -6.059172225507153 -12.489382309438088 -3.387989030560827 0 0 0
310 104 1 -1.1128 -7.68647133262873 5.39316434232393 5.231585201476509 0 0 0
311 104 2 0.5564 -7.363419273391916 4.709082060114617 4.643198119539666 0 0 0
312 104 2 0.5564 -7.097104064435165 5.358327246809831 5.986539596429075 0 0 0
313 105 1 -1.1128 0.4781568441654297 6.558519625190528 6.867092478478481 0 0 0
314 105 2 0.5564 1.0838412541447005 7.268811586818882 6.649923685245639 0 0 0
315 105 2 0.5564 -0.3077245960355923 6.747421516247341 6.3520876474305314 0 0 0
316 106 1 -1.1128 13.061055819061451 -1.0559193109306568 13.446934816979347 0 0 0
317 106 2 0.5564 13.421357503602712 -1.9404876033428435 13.367864012154067 0 0 0
318 106 2 0.5564 13.545340753639644 -0.5408326477654106 12.79988198291563 0 0 0
319 107 1 -1.1128 -5.075164214925694 -1.2604159353694178 0.7795292534062599 0 0 0
320 107 2 0.5564 -6.001661330134496 -1.0727649446431442 0.9373923624254853 0 0 0
321 107 2 0.5564 -4.982766346677272 -1.227743551557741 -0.17384301794381962 0 0 0
322 108 1 -1.1128 5.003035874591829 -3.30088544564823 3.1680377707692475 0 0 0
323 108 2 0.5564 5.349515540379308 -2.4991356006341023 3.562600297139428 0 0 0
324 108 2 0.5564 4.169443287324265 -3.035017474967928 2.7769352789350665 0 0 0
325 109 1 -1.1128 14.805965545424979 -10.810346803537433 5.171865057256429 0 0 0
326 109 2 0.5564 14.657238408293276 -10.375136805768008 4.331030319319095 0 0 0
327 109 2 0.5564 14.322036449092595 -10.27906634868546 5.805960670326889 0 0 0
328 110 1 -1.1128 -4.95870717522248 0.9814806035976272 0.6097401304592045 0 0 0
329 110 2 0.5564 -4.015074210608286 0.8484143290588586 0.7116261190631388 0 0 0
330 110 2 0.5564 -5.082638325289854 1.9240202630479117 0.731327954299916 0 0 0
331 111 1 -1.1128 9.563708490780646 -14.488255147454932 -6.5484068585210435 0 0 0
332 111 2 0.5564 10.295159370399901 -13.892288247883876 -6.716732808154131 0 0 0
333 111 2 0.5564 9.772615779635272 14.726094586863201 -7.055984382843607 0 -1 0
334 112 1 -1.1128 4.080121261838372 1.0601450565884305 12.469995733182675 0 0 0
335 112 2 0.5564 5.024736250717721 1.1288724524216192 12.616657343178122 0 0 0
336 112 2 0.5564 3.763242225294904 1.963276552673211 12.519641634110632 0 0 0
337 113 1 -1.1128 -6.797557032545264 13.815907779376007 -7.7688410330392355 0 0 0
338 113 2 0.5564 -7.232819894836647 14.5581780474095 -8.190873792316758 0 0 0
339 113 2 0.5564 -6.974424179259529 13.933714850497136 -6.834302085264978 0 0 0
340 114 1 -1.1128 10.433299475860387 5.641275207267963 -0.9991086847687161 0 0 0
341 114 2 0.5564 10.159049559458104 6.553550395792868 -1.104329993234202 0 0 0
342 114 2 0.5564 10.365434157989334 5.267304321600708 -1.8789175354877286 0 0 0
343 115 1 -1.1128 9.57288358318923 -14.59440357139804 -9.888699469559372 0 0 0
344 115 2 0.5564 10.161630852517648 -14.378829142632737 -10.61356833943919 0 0 0
345 115 2 0.5564 8.804605427029845 -14.039234269844702 -10.030330186146964 0 0 0
346 116 1 -1.1128 6.325579472280746 5.981401421435877 -1.6268068284566226 0 0 0
347 116 2 0.5564 6.870646171787521 6.470007954475784 -2.2454315199776724 0 0 0
348 116 2 0.5564 5.42926994509558 6.25295770092877 -1.830301194582767 0 0 0
349 117 1 -1.1128 2.3290761975980283 7.219116268936146 14.894498181984003 0 0 0
350 117 2 0.5564 2.791704185874133 7.338706987726651 14.063713032596526 0 0 0
351 117 2 0.5564 2.2971201287173963 8.096085113238757 -14.720238279273698 0 0 1
352 118 1 -1.1128 5.837142466481195 -6.947168236494502 7.412568094656284 0 0 0
353 118 2 0.5564 6.350206208902532 -6.794254922334725 8.207498075576167 0 0 0
354 118 2 0.5564 5.42377502645837 -6.102519981101938 7.227581006752082 0 0 0
355 119 1 -1.1128 -9.874123134620925 -14.98634488264879 0.24480904757040012 0 0 0
356 119 2 0.5564 -9.15331889518723 14.918117200434933 -0.37956609194566915 0 -1 0
357 119 2 0.5564 -10.566454391140937 -14.548919209149641 -0.2530461019552802 0 0 0
358 120 1 -1.1128 -12.447835460802342 -9.787078566780673 11.93662187389986 0 0 0
359 120 2 0.5564 -12.329416027271595 -10.106381662006374 12.83247506005345 0 0 0
360 120 2 0.5564 -13.030228889447185 -10.429244768742555 11.528009585992173 0 0 0
361 121 1 -1.1128 8.701079976462427 7.178556906279849 -1.6640179976188694 0 0 0
362 121 2 0.5564 9.004820926434643 7.651483788148557 -2.440298977494015 0 0 0
363 121 2 0.5564 7.763379820803827 7.371082546534743 -1.6173721572654083 0 0 0
364 122 1 -1.1128 -14.474350919832991 2.638590095632817 0.7318317745454725 0 0 0
365 122 2 0.5564 -14.689655545605568 2.720729209429848 -0.19845186182870855 0 0 0
366 122 2 0.5564 14.734758583487167 2.2715287378980102 1.1296781273242726 -1 0 0
367 123 1 -1.1128 -12.69786317259053 1.509203230027248 -3.479734457119534 0 0 0
368 123 2 0.5564 -12.786989245422845 0.5664495239973986 -3.3320775815313217 0 0 0
369 123 2 0.5564 -13.498668612263415 1.886391383953376 -3.1123609648421047 0 0 0
370 124 1 -1.1128 -8.222618756784257 -3.602623831594017 3.631002284345259 0 0 0
371 124 2 0.5564 -8.564206856674856 -3.7615484364285376 4.512246348150129 0 0 0
372 124 2 0.5564 -8.78884409267672 -2.9165787569467128 3.2742747089524347 0 0 0
373 125 1 -1.1128 4.86528666407249 5.938923358841662 0.9919806194519145 0 0 0
374 125 2 0.5564 5.442072656324943 6.5341832413670575 1.4731397941511035 0 0 0
375 125 2 0.5564 4.00744039318567 6.365679591023216 1.0143956215661154 0 0 0