LAMMPS data file via write_data, version 29 Sep 2021, timestep = 1

3 atoms
2 atom types
2 bonds
1 bond types
1 angles
1 angle types

-20 20 xlo xhi
-20 20 ylo yhi
-20 20 zlo zhi

Masses

1 15.9994
2 1.008

Pair Coeffs # lj/cut/tip4p/cut

1 0.185199 3.1589
2 0 0

Bond Coeffs # harmonic

1 0 0.9572

Angle Coeffs # harmonic

1 0 104.52

Atoms # full

1 1 1 -1.1128 16.201273930148563 10.261921341416542 -9.262762018328587 0 0 0
2 1 2 0.5564 16.56397821627709 11.130226250476174 -9.08104040231402 0 0 0
3 1 2 0.5564 16.473247512333323 10.07161717036346 -10.161838339656976 0 0 0

Velocities

1 0 0 0
2 0 0 0
3 0 0 0

Bonds

1 1 1 2
2 1 1 3

Angles

1 1 2 1 3
