LAMMPS data file via write_data, version 29 Sep 2021, timestep = 0

3 atoms
2 atom types
2 bonds
1 bond types
1 angles
1 angle types

-50 50 xlo xhi
-50 50 ylo yhi
-50 50 zlo zhi

Masses

1 15.9994
2 1.008

Pair Coeffs # lj/cut/tip4p/cut

1 0.185199 3.1589
2 0 0

Bond Coeffs # harmonic

1 0 0.9572

Angle Coeffs # harmonic

1 0 104.52

Atoms # full

1 1 1 -1.1128 40.82230725663 25.90395930295805 -23.658538069822445 0 0 0
2 1 2 0.5564 40.71515656553823 26.80003598217148 -23.335899147234993 0 0 0
3 1 2 0.5564 41.55878532472922 25.955416620510913 -24.26966468369153 0 0 0

Velocities

1 0 0 0
2 0 0 0
3 0 0 0

Bonds

1 1 1 2
2 1 1 3

Angles

1 1 2 1 3
