LAMMPS data file via write_data, version 29 Sep 2021, timestep = 0

14739 atoms
4 atom types
9826 bonds
2 bond types
4913 angles
2 angle types

-35.699999999999996 35.699999999999996 xlo xhi
-35.699999999999996 35.699999999999996 ylo yhi
-35.699999999999996 35.699999999999996 zlo zhi

Masses

1 15.9994
2 1.008
3 12.011
4 15.9994

Bond Coeffs # harmonic

1 0 0.9572
2 0 1.16

Angle Coeffs # harmonic

1 0 104.52
2 0 180

Atoms # full

1 1 2 -1.1128 -32.21155928943776 -32.22600024600218 -31.76088176489539 0 0 0
2 1 3 0.5564 -31.848855003309236 -31.35769533694255 -31.579160148880828 0 0 0
3 1 3 0.5564 -31.939585707253002 -32.416304417055265 -32.65995808622378 0 0 0
4 2 2 -1.1128 -28.144485342334807 -32.036151866879514 -32.361701538386995 0 0 0
5 2 3 0.5564 -27.552789848138442 -32.63500169084378 -31.903655808698694 0 0 0
6 2 3 0.5564 -28.30272480952675 -31.328846442276706 -31.73464265291431 0 0 0
7 3 2 -1.1128 -23.71995982844758 -32.23632777253995 -31.863114424634304 0 0 0
8 3 3 0.5564 -24.311438968847895 -31.674600585938553 -31.359978703079793 0 0 0
9 3 3 0.5564 -23.968601202704523 -32.0890716415215 -32.7769068722859 0 0 0
10 4 2 -1.1128 -20.285925874808783 -32.26448140966716 -31.963848201216223 0 0 0
11 4 3 0.5564 -19.34005194909366 -32.418905843471194 -31.961364072282308 0 0 0
12 4 3 0.5564 -20.374022176097558 -31.316612746861644 -32.07478772650147 0 0 0
13 5 2 -1.1128 -16.244849479369748 -32.08260482186997 -31.706340077034344 0 0 0
14 5 3 0.5564 -16.468383574267904 -31.847646240502485 -32.608203444435325 0 0 0
15 5 3 0.5564 -15.28676694636235 -32.069748937627544 -31.685456478530327 0 0 0
16 6 2 -1.1128 -12.049052517186839 -32.38780387921738 -31.985406291712195 0 0 0
17 6 3 0.5564 -11.845707331384563 -31.794416525688543 -31.260787257955087 0 0 0
18 6 3 0.5564 -12.105240151428598 -31.81777959509408 -32.75380645033272 0 0 0
19 7 2 -1.1128 -8.244700433520588 -32.305154214805945 -32.00368476878579 0 0 0
20 7 3 0.5564 -7.286569250206341 -32.32113993056046 -32.01979850369289 0 0 0
21 7 3 0.5564 -8.46873031627307 -31.37370585463359 -31.976516727521318 0 0 0
22 8 2 -1.1128 -4.326483244994336 -32.203950610022595 -32.069453681755405 0 0 0
23 8 3 0.5564 -4.102127100890694 -31.705916836298226 -31.281953052655457 0 0 0
24 8 3 0.5564 -3.57138965411497 -32.09013255367918 -32.64859326558914 0 0 0
25 9 2 -1.1128 -0.2919199644123771 -32.24788020284179 -32.079681327276774 0 0 0
26 9 3 0.5564 0.3862102949097387 -31.928580022341677 -32.676939484294586 0 0 0
27 9 3 0.5564 -0.09429033049736149 -31.82353977481653 -31.243379188428644 0 0 0
28 10 2 -1.1128 3.9624260879171875 -31.99140431246895 -31.61073750529153 0 0 0
29 10 3 0.5564 4.426840661332464 -32.640606853033496 -32.141195538809775 0 0 0
30 10 3 0.5564 3.6107332507503482 -31.367988834497552 -32.24806695589869 0 0 0
31 11 2 -1.1128 7.651896307599505 -32.08369055201931 -31.842422446586312 0 0 0
32 11 3 0.5564 8.345420055762661 -31.5337556170305 -31.474826285000564 0 0 0
33 11 3 0.5564 8.002683636637833 -32.38255383095019 -32.68275126841313 0 0 0
34 12 2 -1.1128 12.323291969096399 -31.917644020715958 -32.204232147062946 0 0 0
35 12 3 0.5564 11.64381124899317 -31.30889026918247 -31.91053948286803 0 0 0
36 12 3 0.5564 12.03289678191043 -32.77346571010157 -31.885228370069026 0 0 0
37 13 2 -1.1128 16.131771375092978 -31.930295615417712 -32.36164703507164 0 0 0
38 13 3 0.5564 15.38363414604137 -32.47098102733352 -32.103808845797026 0 0 0
39 13 3 0.5564 16.484594478865652 -31.59872335724877 -31.534544119131333 0 0 0
40 14 2 -1.1128 20.116068588155965 -31.677916608143107 -32.18921243625471 0 0 0
41 14 3 0.5564 19.482753721736056 -32.33467843001753 -32.48265195182771 0 0 0
42 14 3 0.5564 20.401177690107982 -31.98740496183936 -31.328135611917585 0 0 0
43 15 2 -1.1128 23.75524904891307 -32.24794971431973 -32.177845116915826 0 0 0
44 15 3 0.5564 24.541178992678567 -32.46069351300051 -31.67229120325712 0 0 0
45 15 3 0.5564 23.703571958408364 -31.291356772679762 -32.14986367982705 0 0 0
46 16 2 -1.1128 27.95771742533282 -32.31271961451137 -31.768851560508466 0 0 0
47 16 3 0.5564 28.399622654292557 -31.487266859408518 -31.56421022130462 0 0 0
48 16 3 0.5564 27.642659920374623 -32.200013526080106 -32.666938218186914 0 0 0
49 17 2 -1.1128 32.37175607427112 -31.972480254628547 -31.881462835544223 0 0 0
50 17 3 0.5564 32.0179293719163 -31.78358398582766 -32.75189687918786 0 0 0
51 17 3 0.5564 31.61031455381258 -32.24393575954379 -31.366640285267916 0 0 0
52 18 2 -1.1128 -32.3152547380741 -28.164384807303076 -32.16310444429801 0 0 0
53 18 3 0.5564 -31.922828285891715 -28.365140816606715 -31.312087955411908 0 0 0
54 18 3 0.5564 -31.761916976034186 -27.47047437609021 -32.52480760029009 0 0 0
55 19 2 -1.1128 -28.29519242291388 -28.254092351482647 -31.963813194776908 0 0 0
56 19 3 0.5564 -27.984229458475614 -27.82586512600043 -32.76284638439019 0 0 0
57 19 3 0.5564 -27.72057811861051 -27.920042522516923 -31.273340420832906 0 0 0
58 20 2 -1.1128 -24.351343390228806 -28.166458154472846 -31.95686672453866 0 0 0
59 20 3 0.5564 -23.492265446125206 -28.588734407929252 -31.909979501102487 0 0 0
60 20 3 0.5564 -24.15639116364599 -27.244807437597903 -32.13315377435885 0 0 0
61 21 2 -1.1128 -19.71016587755822 -27.764474911533377 -31.88365960000416 0 0 0
62 21 3 0.5564 -20.207661708138 -27.7226487653398 -32.70175435738275 0 0 0
63 21 3 0.5564 -20.08217241430378 -28.51287632312682 -31.41458604261309 0 0 0
64 22 2 -1.1128 -15.615180530171193 -27.948973029417687 -31.95182118293412 0 0 0
65 22 3 0.5564 -16.177699265205653 -28.601365251649547 -31.531716885042982 0 0 0
66 22 3 0.5564 -16.207120204623156 -27.449661718932767 -32.5164619320229 0 0 0
67 23 2 -1.1128 -12.207346086037152 -27.957581930153243 -32.328966992957575 0 0 0
68 23 3 0.5564 -12.528235833474401 -28.20807910325308 -31.46131988943066 0 0 0
69 23 3 0.5564 -11.264418080488447 -27.834338966593677 -32.20971311761177 0 0 0
70 24 2 -1.1128 -8.082656149719371 -27.88306889377304 -32.3640138071696 0 0 0
71 24 3 0.5564 -7.845562009829314 -28.76400993209401 -32.070313592951486 0 0 0
72 24 3 0.5564 -8.071781840451314 -27.352921174132952 -31.565672599878912 0 0 0
73 25 2 -1.1128 -4.287516750711569 -28.009366680500804 -32.26506104552849 0 0 0
74 25 3 0.5564 -3.9685686212011326 -28.730018697533872 -31.719659064391678 0 0 0
75 25 3 0.5564 -3.743914628087299 -27.260614621965324 -32.01527989007983 0 0 0
76 26 2 -1.1128 0.11965094082757877 -28.365122147049846 -32.07335151390931 0 0 0
77 26 3 0.5564 0.5868991667577433 -27.547566997119695 -32.25171415626416 0 0 0
78 26 3 0.5564 -0.706550107585322 -28.087310855830463 -31.674934329826538 0 0 0
79 27 2 -1.1128 4.024825814877206 -27.775414660479 -31.68069438043166 0 0 0
80 27 3 0.5564 4.459065260394343 -27.644910543972728 -32.52504936474329 0 0 0
81 27 3 0.5564 3.5161089247284516 -28.57967479554827 -31.79425625482505 0 0 0
82 28 2 -1.1128 7.80559271326003 -28.00730315605945 -32.339357400499786 0 0 0
83 28 3 0.5564 7.4814802004252625 -27.722787634208146 -31.483476242365313 0 0 0
84 28 3 0.5564 8.712927086314707 -28.269909209732404 -32.1771663571349 0 0 0
85 29 2 -1.1128 11.862559970151333 -28.33914011761586 -31.861778462898506 0 0 0
86 29 3 0.5564 12.566527795129446 -27.799644785890333 -31.49859166737594 0 0 0
87 29 3 0.5564 11.570912234719223 -27.861215096493808 -32.63962986972555 0 0 0
88 30 2 -1.1128 15.931138099969205 -27.692129932816172 -31.768731681900928 0 0 0
89 30 3 0.5564 16.039589143962427 -28.608326233753132 -31.50920659793753 0 0 0
90 30 3 0.5564 16.029272756068366 -27.699543833430695 -32.72206172016154 0 0 0
91 31 2 -1.1128 19.756301003298855 -27.74529968496605 -31.830443156940035 0 0 0
92 31 3 0.5564 20.589490229625074 -27.55926568079834 -32.266009021565864 0 0 0
93 31 3 0.5564 19.654208767076074 -28.69543463423561 -31.903547821494097 0 0 0
94 32 2 -1.1128 23.94901384534978 -28.064078668776613 -32.38249877220954 0 0 0
95 32 3 0.5564 24.733610887711528 -28.233150058319616 -31.85871169108287 0 0 0
96 32 3 0.5564 23.317375266938694 -27.70277127290377 -31.758789536707596 0 0 0
97 33 2 -1.1128 28.10103688378507 -28.364161077015503 -32.100941728744424 0 0 0
98 33 3 0.5564 27.446145738087363 -27.800616688493886 -32.51574996088615 0 0 0
99 33 3 0.5564 28.45281737812757 -27.83522223449061 -31.38330831036943 0 0 0
100 34 2 -1.1128 31.651421266163478 -28.12053639680128 -31.869712556771223 0 0 0
101 34 3 0.5564 32.466255655533104 -28.622954477617153 -31.91609735999305 0 0 0
102 34 3 0.5564 31.88232307830342 -27.256509125581566 -32.21419008323573 0 0 0
103 35 2 -1.1128 -32.345485676905206 -23.937571392178995 -32.17249142146462 0 0 0
104 35 3 0.5564 -32.06803313729885 -24.709623284908997 -31.67702545573336 0 0 0
105 35 3 0.5564 -31.58648118579595 -23.35280532291201 -32.15048312280202 0 0 0
106 36 2 -1.1128 -28.28015906659432 -24.272972227352422 -31.997165392574214 0 0 0
107 36 3 0.5564 -27.33711838298402 -24.40120497363001 -32.11013083790122 0 0 0
108 36 3 0.5564 -28.38272255042166 -23.325822799017573 -31.892703769524573 0 0 0
109 37 2 -1.1128 -24.275362774273585 -23.990659481807548 -32.27766719605357 0 0 0
110 37 3 0.5564 -23.46558974025569 -23.479641634653085 -32.236936946028905 0 0 0
111 37 3 0.5564 -24.259047485470727 -24.529698883539368 -31.485395857917524 0 0 0
112 38 2 -1.1128 -20.265071197390117 -24.101837012817064 -32.26903058865985 0 0 0
113 38 3 0.5564 -19.42812446359794 -23.656395184014766 -32.409145905266826 0 0 0
114 38 3 0.5564 -20.306804339011943 -24.241767803168173 -31.321823506073322 0 0 0
115 39 2 -1.1128 -16.252263776839932 -24.03869031899011 -31.70355941470356 0 0 0
116 39 3 0.5564 -15.71265209344474 -24.71998281881693 -32.10752763229391 0 0 0
117 39 3 0.5564 -16.03508412971533 -23.24132686219296 -32.18891295300253 0 0 0
118 40 2 -1.1128 -12.331957846368336 -24.05339249167229 -31.80008950861068 0 0 0
119 40 3 0.5564 -12.212058357307958 -24.06028367288726 -32.75093501874601 0 0 0
120 40 3 0.5564 -11.455983796323705 -23.886323835440447 -31.448975472643312 0 0 0
121 41 2 -1.1128 -7.961533905660776 -24.305572605850827 -31.75884296269895 0 0 0
122 41 3 0.5564 -7.280042631773136 -23.882828431972214 -32.28361678737649 0 0 0
123 41 3 0.5564 -8.758423462566087 -23.81159896217696 -31.957540249924566 0 0 0
124 42 2 -1.1128 -4.305400946129843 -24.20194381505766 -32.13769506949399 0 0 0
125 42 3 0.5564 -3.406127901840451 -24.509527461206943 -32.01428172971258 0 0 0
126 42 3 0.5564 -4.2884711520297065 -23.2885287237354 -31.848023200793435 0 0 0
127 43 2 -1.1128 -0.37268289049453357 -23.962515051976457 -32.11275334276336 0 0 0
128 43 3 0.5564 0.023738447799495688 -24.688622736660086 -31.628864602670614 0 0 0
129 43 3 0.5564 0.34894444269503777 -23.348862211363457 -32.25838205456603 0 0 0
130 44 2 -1.1128 3.711073911048115 -24.259734018057333 -31.954492533725105 0 0 0
131 44 3 0.5564 4.640325271948551 -24.43673154444453 -32.1084222057104 0 0 0
132 44 3 0.5564 3.648600817003334 -23.303534437498136 -31.937085260564494 0 0 0
133 45 2 -1.1128 8.150312510484556 -23.758789289246504 -31.73123520187788 0 0 0
134 45 3 0.5564 7.316826232153756 -24.230557850465154 -31.695659810383752 0 0 0
135 45 3 0.5564 8.53286125736169 -24.010652860288342 -32.57310498773837 0 0 0
136 46 2 -1.1128 12.126652827885936 -24.36349475449907 -31.93041839941366 0 0 0
137 46 3 0.5564 11.260896363633064 -24.09298726613678 -32.23996969297305 0 0 0
138 46 3 0.5564 12.612450808480999 -23.54351797936415 -31.829611907613288 0 0 0
139 47 2 -1.1128 15.677122998180407 -23.783672879877905 -31.955683036028287 0 0 0
140 47 3 0.5564 16.445425337545103 -23.81511814146605 -31.383622487790266 0 0 0
141 47 3 0.5564 15.877451664274489 -24.401208978656044 -32.66069447618145 0 0 0
142 48 2 -1.1128 19.697535951600088 -23.860019933216183 -32.204773178977945 0 0 0
143 48 3 0.5564 19.675917213362272 -24.48898048288673 -31.48195105900988 0 0 0
144 48 3 0.5564 20.62654683503764 -23.650999583897086 -32.313275762012175 0 0 0
145 49 2 -1.1128 23.801485639751217 -24.100571418397692 -32.32169615023574 0 0 0
146 49 3 0.5564 24.7501624083545 -24.121428334091405 -32.18713041247098 0 0 0
147 49 3 0.5564 23.44835195189428 -23.778000247510903 -31.491173437293284 0 0 0
148 50 2 -1.1128 27.742223586339296 -24.274014557911762 -32.107136908265296 0 0 0
149 50 3 0.5564 28.69652484589313 -24.301206716640046 -32.19139990440038 0 0 0
150 50 3 0.5564 27.561251567767574 -23.42477872544819 -31.70146318733433 0 0 0
151 51 2 -1.1128 31.708012621077792 -24.26025180278237 -32.00483158345315 0 0 0
152 51 3 0.5564 32.64056216349631 -24.42181002238577 -32.15576485550931 0 0 0
153 51 3 0.5564 31.651425215425895 -23.31793817483186 -31.839403561037543 0 0 0
154 52 2 -1.1128 -32.11960029069719 -19.632756059835813 -31.938043294327166 0 0 0
155 52 3 0.5564 -31.302786218056937 -20.04084772366607 -31.64682769610295 0 0 0
156 52 3 0.5564 -32.57761349124587 -20.326396216498114 -32.41512900956989 0 0 0
157 53 2 -1.1128 -28.19824004821707 -20.335895448435092 -31.97023247569108 0 0 0
158 53 3 0.5564 -27.2783396577985 -20.21687500136808 -32.21137136697105 0 0 0
159 53 3 0.5564 -28.52342029398443 -19.447229550196827 -31.81839615733787 0 0 0
160 54 2 -1.1128 -24.04589362534061 -20.334869971954774 -32.1968929951423 0 0 0
161 54 3 0.5564 -23.971641418780912 -20.217191158015133 -31.248647844049618 0 0 0
162 54 3 0.5564 -23.982464955878477 -19.447938870030093 -32.554459160808086 0 0 0
163 55 2 -1.1128 -20.239105002967875 -20.30957938805228 -31.99938799599098 0 0 0
164 55 3 0.5564 -19.280726877546822 -20.308414164170394 -32.005757530332794 0 0 0
165 55 3 0.5564 -20.480168119485302 -19.382006447777325 -31.994854473676227 0 0 0
166 56 2 -1.1128 -16.302556442598284 -20.194167724920785 -32.154173500126824 0 0 0
167 56 3 0.5564 -16.055362952858147 -20.1308116212196 -31.230370521806286 0 0 0
168 56 3 0.5564 -15.642080604543567 -19.675020653859615 -32.61545597806689 0 0 0
169 57 2 -1.1128 -12.04307574646129 -20.020083475380297 -31.61173191145363 0 0 0
170 57 3 0.5564 -12.72993573855253 -20.036648736014982 -32.27992312914848 0 0 0
171 57 3 0.5564 -11.22698851498618 -19.94326778860472 -32.10834495939789 0 0 0
172 58 2 -1.1128 -8.207166401479611 -19.868292844988282 -31.69545725765222 0 0 0
173 58 3 0.5564 -7.876382565867506 -20.756087977717936 -31.840137651622094 0 0 0
174 58 3 0.5564 -7.9164510326528825 -19.375619177293782 -32.46440509072569 0 0 0
175 59 2 -1.1128 -4.298624297356001 -20.250402080366474 -32.033664546287994 0 0 0
176 59 3 0.5564 -3.622933873930302 -20.052212704856537 -32.683813746953334 0 0 0
177 59 3 0.5564 -4.0784418287136965 -19.69738521477699 -31.282521706758676 0 0 0
178 60 2 -1.1128 0.20779263954486932 -20.322152239199976 -31.922211001874196 0 0 0
179 60 3 0.5564 0.1170267572815617 -19.53726489388022 -31.379768406041357 0 0 0
180 60 3 0.5564 -0.3248193968264309 -20.1405828669198 -32.69802059208445 0 0 0
181 61 2 -1.1128 4.042192109474824 -20.290252301022537 -31.74118654952034 0 0 0
182 61 3 0.5564 4.674680855604285 -19.605126982335168 -31.962753342413848 0 0 0
183 61 3 0.5564 3.2831270349208914 -20.104620716642298 -32.29606010806581 0 0 0
184 62 2 -1.1128 7.809482413381852 -19.767054080693182 -31.750099575095405 0 0 0
185 62 3 0.5564 8.212446226766414 -20.617471995171393 -31.56860550952548 0 0 0
186 62 3 0.5564 7.978071359851735 -19.615473924135426 -32.68129491537912 0 0 0
187 63 2 -1.1128 11.982810233457293 -20.343996188586992 -32.18542413182709 0 0 0
188 63 3 0.5564 12.70806594752732 -19.992640371177313 -31.666691253766373 0 0 0
189 63 3 0.5564 11.309123819015387 -19.663363440235695 -32.147884614406536 0 0 0
190 64 2 -1.1128 15.691969961648185 -20.238707716781366 -31.966131195444667 0 0 0
191 64 3 0.5564 15.768910407813792 -19.453742046655442 -32.51059388881089 0 0 0
192 64 3 0.5564 16.53911963053802 -20.30755023656319 -31.52327491574444 0 0 0
193 65 2 -1.1128 20.20365738589482 -19.90405200451122 -32.31988845842289 0 0 0
194 65 3 0.5564 20.43053881356516 -20.553718615947265 -31.652813746142865 0 0 0
195 65 3 0.5564 19.365803800540018 -19.542229379541514 -32.027297795434244 0 0 0
196 66 2 -1.1128 23.960583163333695 -20.37693179039297 -31.903151082203397 0 0 0
197 66 3 0.5564 24.495477652173268 -19.711910646828503 -31.46707158896706 0 0 0
198 66 3 0.5564 23.543939184493038 -19.911157562778527 -32.62977732882954 0 0 0
199 67 2 -1.1128 27.687991523452848 -19.977044739103132 -31.76519211882928 0 0 0
200 67 3 0.5564 27.84321590776011 -19.501807236443298 -32.58286275336502 0 0 0
201 67 3 0.5564 28.46879256878704 -20.521148024453566 -31.6519451278057 0 0 0
202 68 2 -1.1128 31.82761740328555 -20.34713295014958 -31.947142363177747 0 0 0
203 68 3 0.5564 32.76086771461854 -20.139311677217417 -31.880925032261064 0 0 0
204 68 3 0.5564 31.41151488209591 -19.513555372633004 -32.17193260456119 0 0 0
205 69 2 -1.1128 -31.86291921594212 -16.345839719603557 -31.879108637667485 0 0 0
206 69 3 0.5564 -32.13388754000251 -16.099152961081852 -32.764688882775715 0 0 0
207 69 3 0.5564 -32.00319324405537 -15.555007319314592 -31.356202479556796 0 0 0
208 70 2 -1.1128 -28.192553744542153 -16.340061789756874 -32.01708827405408 0 0 0
209 70 3 0.5564 -27.47206550293529 -16.102525802123374 -31.431422918850934 0 0 0
210 70 3 0.5564 -28.335380752522557 -15.557412408119752 -32.551488807094984 0 0 0
211 71 2 -1.1128 -24.02668858636182 -16.389976790631238 -31.985275984685988 0 0 0
212 71 3 0.5564 -23.87083562788039 -15.784670103042927 -31.258747093799016 0 0 0
213 71 3 0.5564 -24.10247578575779 -15.825353106325835 -32.75597692151499 0 0 0
214 72 2 -1.1128 -19.66745899575078 -16.20108782550132 -32.04462220779019 0 0 0
215 72 3 0.5564 -20.46579794010723 -16.48000526377072 -31.593633790474325 0 0 0
216 72 3 0.5564 -19.86674306414199 -15.318906910727959 -32.36174400173548 0 0 0
217 73 2 -1.1128 -16.186783491688917 -15.938604764000184 -31.66183801702583 0 0 0
218 73 3 0.5564 -15.8302123159948 -16.763962995926395 -31.993758708842044 0 0 0
219 73 3 0.5564 -15.983004192316281 -15.297432240073421 -32.34440327413213 0 0 0
220 74 2 -1.1128 -12.387659286759234 -16.026632628884215 -31.95503384641714 0 0 0
221 74 3 0.5564 -11.880489192192561 -15.262984472722207 -32.234588042893606 0 0 0
222 74 3 0.5564 -11.731851521048204 -16.71038289839358 -31.810378110689253 0 0 0
223 75 2 -1.1128 -8.321200013082642 -16.220493644480648 -32.03498683808737 0 0 0
224 75 3 0.5564 -7.67822230900523 -16.00857121723572 -32.713366611437046 0 0 0
225 75 3 0.5564 -8.000577677912128 -15.770935138283633 -31.251646550475584 0 0 0
226 76 2 -1.1128 -4.296984559920765 -16.203415148950953 -31.846920207584635 0 0 0
227 76 3 0.5564 -3.58276647023131 -16.530860203099394 -32.39573968325407 0 0 0
228 76 3 0.5564 -4.120248969847925 -15.265724647949654 -31.757340109161298 0 0 0
229 77 2 -1.1128 -0.11352007578063325 -16.371891419804985 -32.04267245915332 0 0 0
230 77 3 0.5564 0.6861726996920425 -16.04658863612018 -31.626499269502997 0 0 0
231 77 3 0.5564 -0.5726526239114093 -15.581519944074836 -32.330828271343684 0 0 0
232 78 2 -1.1128 3.848565432258177 -16.296275341187844 -31.794331654363454 0 0 0
233 78 3 0.5564 4.766151239989743 -16.156295198284365 -32.03302058381417 0 0 0
234 78 3 0.5564 3.3852833277520795 -15.54742946052779 -32.17264776182237 0 0 0
235 79 2 -1.1128 7.711984888593596 -16.23471138652229 -32.12234719097038 0 0 0
236 79 3 0.5564 8.645835166387624 -16.438836475921175 -32.05315783816292 0 0 0
237 79 3 0.5564 7.642179945018779 -15.326452137556537 -31.824494970866706 0 0 0
238 80 2 -1.1128 12.250611018794123 -16.289956621551216 -31.92170409092694 0 0 0
239 80 3 0.5564 11.391628680787125 -16.134042539870777 -31.52626673542575 0 0 0
240 80 3 0.5564 12.357760300418752 -15.576000838578008 -32.55202917364731 0 0 0
241 81 2 -1.1128 16.335913852724886 -15.837315831264053 -31.88292430102614 0 0 0
242 81 3 0.5564 15.681364879248616 -16.284331789066986 -31.344154466318695 0 0 0
243 81 3 0.5564 15.9827212680265 -15.87835237966896 -32.772921232655165 0 0 0
244 82 2 -1.1128 20.016302791749876 -16.26014199241711 -31.708330088520576 0 0 0
245 82 3 0.5564 20.706562393319604 -15.663439104571205 -32.00161818251206 0 0 0
246 82 3 0.5564 19.27713481493052 -16.07641890301168 -32.29005172896736 0 0 0
247 83 2 -1.1128 23.817822619746252 -16.32574586341381 -31.882901711828605 0 0 0
248 83 3 0.5564 24.68704395842267 -16.014742945600094 -31.625487630044162 0 0 0
249 83 3 0.5564 23.495133421831074 -15.659511190986093 -32.491610658127236 0 0 0
250 84 2 -1.1128 27.976731928190805 -15.863905421650669 -32.3659888482976 0 0 0
251 84 3 0.5564 27.40730445435147 -16.507805816127085 -31.94210773993103 0 0 0
252 84 3 0.5564 28.61596361745773 -15.628288762222247 -31.691903411771374 0 0 0
253 85 2 -1.1128 31.740687134858906 -16.29002746032187 -32.04064338484381 0 0 0
254 85 3 0.5564 32.69699987686379 -16.353101057005976 -32.044911977167835 0 0 0
255 85 3 0.5564 31.562312988277302 -15.356871482672155 -31.91444463798836 0 0 0
256 86 2 -1.1128 -32.19109829367728 -12.339622666446646 -32.033894853433885 0 0 0
257 86 3 0.5564 -31.243797373809947 -12.201343487707081 -31.9888349383693 0 0 0
258 86 3 0.5564 -32.565104332512774 -11.459033845846273 -31.977270208196817 0 0 0
259 87 2 -1.1128 -28.052028067004514 -12.143275565768057 -31.63975540670592 0 0 0
260 87 3 0.5564 -27.574299041652697 -11.352022676411558 -31.893180747627845 0 0 0
261 87 3 0.5564 -28.373672891342792 -12.504701757820385 -32.46706384566623 0 0 0
262 88 2 -1.1128 -24.38242388949279 -11.949844397107805 -31.934828236607217 0 0 0
263 88 3 0.5564 -23.967150582755643 -12.539711884444877 -32.565807624617825 0 0 0
264 88 3 0.5564 -23.650425527751565 -11.510443718447318 -31.499364138774958 0 0 0
265 89 2 -1.1128 -20.011005662538285 -12.100671656823303 -31.622170584251908 0 0 0
266 89 3 0.5564 -20.48509770034876 -12.504027528947123 -32.35091700112677 0 0 0
267 89 3 0.5564 -19.503896637112955 -11.395300814229575 -32.02691241462133 0 0 0
268 90 2 -1.1128 -16.181028656796823 -11.653245378729856 -31.999087560337706 0 0 0
269 90 3 0.5564 -16.466547073994192 -12.465315655179396 -31.577718767534684 0 0 0
270 90 3 0.5564 -15.352424269208985 -11.88143896609075 -32.42319367212761 0 0 0
271 91 2 -1.1128 -11.887182104657114 -12.181009610939565 -32.32790031677006 0 0 0
272 91 3 0.5564 -11.755391869139762 -11.26203496837297 -32.08989296364442 0 0 0
273 91 3 0.5564 -12.357426026203123 -12.556955420687466 -31.582206719585518 0 0 0
274 92 2 -1.1128 -7.79642429942303 -12.27731977893627 -31.813823608249237 0 0 0
275 92 3 0.5564 -8.74636969505516 -12.150397982065163 -31.818839861465076 0 0 0
276 92 3 0.5564 -7.457206005521809 -11.572282238998566 -32.36733653028569 0 0 0
277 93 2 -1.1128 -4.28275837076562 -12.258178809347507 -31.919985122221703 0 0 0
278 93 3 0.5564 -3.4755318377457938 -12.406633429572812 -32.4148357159594 0 0 0
279 93 3 0.5564 -4.241709791488586 -11.33518776107968 -31.665179161818898 0 0 0
280 94 2 -1.1128 0.35676481516903125 -12.12441425053927 -32.10124690326207 0 0 0
281 94 3 0.5564 -0.3136921118536779 -11.740618264085521 -32.66844943304245 0 0 0
282 94 3 0.5564 -0.043072703315353345 -12.134967485375212 -31.23030366369548 0 0 0
283 95 2 -1.1128 3.854545279154844 -12.362730867110937 -32.01673967528972 0 0 0
284 95 3 0.5564 4.718055287681171 -12.06295192962946 -32.304860507263626 0 0 0
285 95 3 0.5564 3.4273994331639845 -11.574317203259602 -31.678399817446653 0 0 0
286 96 2 -1.1128 8.190486918153741 -12.338916932994303 -32.04313955310413 0 0 0
287 96 3 0.5564 8.518525008324179 -11.455261343024821 -32.21655918784316 0 0 0
288 96 3 0.5564 7.29098807352208 -12.205821723980874 -31.740301259052707 0 0 0
289 97 2 -1.1128 11.917806719737806 -12.36955044580364 -31.901573849074182 0 0 0
290 97 3 0.5564 12.741357352511418 -12.024342179516228 -32.24960569839981 0 0 0
291 97 3 0.5564 11.340835927750776 -11.606107374680132 -31.848820452526002 0 0 0
292 98 2 -1.1128 16.050832341092857 -12.306144348508024 -32.2381232568978 0 0 0
293 98 3 0.5564 16.61394134954277 -12.025174896168565 -31.515285120483696 0 0 0
294 98 3 0.5564 15.335226309364375 -11.668680755323411 -32.246591622618496 0 0 0
295 99 2 -1.1128 19.826649298419856 -12.3439916471048 -32.06804598065865 0 0 0
296 99 3 0.5564 20.765953219256605 -12.159043592409414 -32.022958051397026 0 0 0
297 99 3 0.5564 19.407397482323535 -11.496964760485785 -31.908995967944318 0 0 0
298 100 2 -1.1128 23.874833067782927 -12.363794003048927 -32.07069750296159 0 0 0
299 100 3 0.5564 24.77104850346331 -12.076407655708662 -31.889762320615404 0 0 0
300 100 3 0.5564 23.354118428753765 -11.559798341242411 -32.039540176423 0 0 0
301 101 2 -1.1128 27.97284421428539 -12.234690343807813 -32.31175949115559 0 0 0
302 101 3 0.5564 28.219056717008034 -11.308623626604897 -32.29414135300004 0 0 0
303 101 3 0.5564 27.808099068706575 -12.45668602958729 -31.394099155844362 0 0 0
304 102 2 -1.1128 31.790717962790477 -12.32556136260596 -31.94323907524025 0 0 0
305 102 3 0.5564 32.66087323289487 -12.248676894654736 -32.33750947039743 0 0 0
306 102 3 0.5564 31.548408804314647 -11.425761742739304 -31.71925145436232 0 0 0
307 103 2 -1.1128 -31.809780952879265 -8.044862317706983 -32.33884371185317 0 0 0
308 103 3 0.5564 -32.75225537184568 -8.117859123659416 -32.18090702860741 0 0 0
309 103 3 0.5564 -31.43796367527506 -7.837278558633601 -31.48024925953942 0 0 0
310 104 2 -1.1128 -28.304139775810125 -7.76036020742553 -32.05552243767191 0 0 0
311 104 3 0.5564 -27.981087716573313 -8.444442489634842 -32.64390951960875 0 0 0
312 104 3 0.5564 -27.714772507616562 -7.795197302939628 -31.30056804271934 0 0 0
313 105 2 -1.1128 -23.939934323259415 -8.299731284228388 -31.755942125239734 0 0 0
314 105 3 0.5564 -23.334249913280146 -7.589439322600035 -31.973110918472578 0 0 0
315 105 3 0.5564 -24.72581576346044 -8.110829393171576 -32.27094695628769 0 0 0
316 106 2 -1.1128 -20.281528873039818 -7.876839456917686 -31.757958787037 0 0 0
317 106 3 0.5564 -19.921227188498555 -8.761407749329873 -31.83702959186228 0 0 0
318 106 3 0.5564 -19.797243938461627 -7.361752793752441 -32.40501162110072 0 0 0
319 107 2 -1.1128 -15.721966917679874 -8.073441124845983 -31.734830279223047 0 0 0
320 107 3 0.5564 -16.648464032888675 -7.88579013411971 -31.576967170203822 0 0 0
321 107 3 0.5564 -15.629569049431451 -8.040768741034308 -32.68820255057313 0 0 0
322 108 2 -1.1128 -11.837629026173305 -8.355872605231477 -32.001153344845335 0 0 0
323 108 3 0.5564 -11.491149360385826 -7.554122760217349 -31.60659081847515 0 0 0
324 108 3 0.5564 -12.671221613440869 -8.090004634551175 -32.39225583667952 0 0 0
325 109 2 -1.1128 -7.789114588845305 -8.322163484207133 -31.93108695837771 0 0 0
326 109 3 0.5564 -7.937841725977006 -7.886953486437708 -32.77192169631504 0 0 0
327 109 3 0.5564 -8.273043685177688 -7.790883029355159 -31.296991345307248 0 0 0
328 110 2 -1.1128 -4.2732339381822735 -8.269824461637173 -32.07449127081488 0 0 0
329 110 3 0.5564 -3.3296009735680796 -8.40289073617594 -31.972605282210946 0 0 0
330 110 3 0.5564 -4.397165088249648 -7.327284802186887 -31.95290344697417 0 0 0
331 111 2 -1.1128 -0.31345272282462744 -7.936772211296396 -31.774698842014782 0 0 0
332 111 3 0.5564 0.41799815679462843 -7.340805311725341 -31.943024791647872 0 0 0
333 111 3 0.5564 -0.10454543397000104 -8.722422476978263 -32.28227636633735 0 0 0
334 112 2 -1.1128 3.7907546825547067 -8.323952963972657 -32.065435836974466 0 0 0
335 112 3 0.5564 4.735369671434055 -8.255225568139467 -31.91877422697902 0 0 0
336 112 3 0.5564 3.4738756460112383 -7.420821467887876 -32.01578993604651 0 0 0
337 113 2 -1.1128 8.204043336335216 -8.286692446384874 -32.17083539616558 0 0 0
338 113 3 0.5564 7.768780474043833 -7.544422178351382 -32.5928681554431 0 0 0
339 113 3 0.5564 8.02717618962095 -8.168885375263745 -31.23629644839132 0 0 0
340 114 2 -1.1128 12.114038411424445 -8.179434767619217 -31.67165661360517 0 0 0
341 114 3 0.5564 11.839788495022162 -7.2671595790943115 -31.776877922070653 0 0 0
342 114 3 0.5564 12.046173093553392 -8.553405653286472 -32.55146546432418 0 0 0
343 115 2 -1.1128 16.059843628943657 -8.25691457677288 -31.711166804510864 0 0 0
344 115 3 0.5564 16.648590898272072 -8.041340148007578 -32.43603567439068 0 0 0
345 115 3 0.5564 15.29156547278427 -7.701745275219542 -31.852797521098456 0 0 0
346 116 2 -1.1128 20.117080942559465 -8.2533876041776 -31.7259603141176 0 0 0
347 116 3 0.5564 20.662147642066238 -7.764781071137693 -32.34458500563865 0 0 0
348 116 3 0.5564 19.220771415374298 -7.981831324684707 -31.929454680243747 0 0 0
349 117 2 -1.1128 23.85644269353484 -8.332186521031039 -31.851492796451605 0 0 0
350 117 3 0.5564 24.319070681810945 -8.212595802240534 -32.68227794583908 0 0 0
351 117 3 0.5564 23.82448662465421 -7.455217676728427 -31.46622925770931 0 0 0
352 118 2 -1.1128 27.966767899200494 -8.332520523184114 -32.203314297671895 0 0 0
353 118 3 0.5564 28.479831641621832 -8.179607209024336 -31.40838431675201 0 0 0
354 118 3 0.5564 27.55340045917767 -7.48787226779155 -32.38830138557609 0 0 0
355 119 2 -1.1128 31.99050900569544 -8.113962585527624 -31.625923236986083 0 0 0
356 119 3 0.5564 32.71131324512913 -8.2095005024439 -32.25029837650215 0 0 0
357 119 3 0.5564 31.298177749175426 -7.676536912028475 -32.123778386511766 0 0 0
358 120 2 -1.1128 -31.845342001628634 -3.6795102342708055 -32.16241363274864 0 0 0
359 120 3 0.5564 -31.726922568097887 -3.9988133294965076 -31.266560446595044 0 0 0
360 120 3 0.5564 -32.42773543027348 -4.321676436232687 -32.571025920656325 0 0 0
361 121 2 -1.1128 -27.788680264771205 -4.221817507374534 -31.756788286826104 0 0 0
362 121 3 0.5564 -27.48493931479899 -3.7488906255058265 -32.533069266701254 0 0 0
363 121 3 0.5564 -28.726380420429805 -4.02929186711964 -31.710142446472645 0 0 0
364 122 2 -1.1128 -23.664601625849194 -3.905025918687408 -31.822520905468206 0 0 0
365 122 3 0.5564 -23.87990625162177 -3.822886804890377 -32.75280454184239 0 0 0
366 122 3 0.5564 -24.455492122529037 -4.272087276422215 -31.424674552689407 0 0 0
367 123 2 -1.1128 -19.703356162498267 -3.8114781492987593 -32.17167678928855 0 0 0
368 123 3 0.5564 -19.79248223533058 -4.754231855328609 -32.024019913700336 0 0 0