LAMMPS data file via write_data, version 29 Sep 2021, timestep = 0

3 atoms
2 atom types
2 bonds
1 bond types
1 angles
1 angle types

-35.699999999999996 35.699999999999996 xlo xhi
-35.699999999999996 35.699999999999996 ylo yhi
-35.699999999999996 35.699999999999996 zlo zhi

Masses

1 12.011
2 15.9994

Pair Coeffs # lj/cut/coul/cut

1 0.0537 2.8
2 0.157 3.05

Bond Coeffs # harmonic

1 0 1.16

Angle Coeffs # harmonic

1 0 180

Atoms # full

1 1 1 0.7 29.296907296961585 18.720940033542426 -11.872599376664777 0 0 0
2 1 2 -0.35 28.85790795231521 17.66998667950531 -12.092546240789252 0 0 0
3 1 2 -0.35 29.73590664160796 19.771893387579542 -11.652652512540302 0 0 0

Velocities

1 0 0 0
2 0 0 0
3 0 0 0

Bonds

1 1 1 2
2 1 1 3

Angles

1 1 2 1 3
