LAMMPS data file via write_data, version 29 Sep 2021, timestep = 0

3 atoms
2 atom types
2 bonds
1 bond types
1 angles
1 angle types

-20 20 xlo xhi
-20 20 ylo yhi
-20 20 zlo zhi

Masses

1 15.9994
2 1.008

Pair Coeffs # lj/cut/tip4p/cut

1 0.185199 3.1589
2 0 0

Bond Coeffs # harmonic

1 0 0.9572

Angle Coeffs # harmonic

1 0 104.52

Atoms # full

1 1 1 -1.1128 16.203057427250506 10.172076921829962 -9.405717689672649 0 0 0
2 1 2 0.5564 16.09590673615874 11.06815360104339 -9.0830787670852 0 0 0
3 1 2 0.5564 16.93953549534973 10.223534239382825 -10.016844303541735 0 0 0

Velocities

1 0 0 0
2 0 0 0
3 0 0 0

Bonds

1 1 1 2
2 1 1 3

Angles

1 1 2 1 3
