LAMMPS data file via write_data, version 29 Sep 2021, timestep = 0

9000 atoms
2 atom types
6000 bonds
1 bond types
3000 angles
1 angle types

-15 15 xlo xhi
-15 15 ylo yhi
-15 15 zlo zhi

Masses

1 15.9994
2 1.008

Pair Coeffs # lj/cut/tip4p/long

1 0.185199 3.1589
2 0 0

Bond Coeffs # harmonic

1 0 0.9572

Angle Coeffs # harmonic

1 0 104.52

Atoms # full

1 1 1 -1.1128 12.099849122353925 7.55009652497528 -7.030247626314351 0 0 0
2 1 2 0.5564 11.99269843126216 8.446173204188709 -6.707608703726901 0 0 0
3 1 2 0.5564 12.836327190453153 7.601553842528143 -7.641374240183437 0 0 0
4 2 1 -1.1128 -13.866159059484879 6.944186425174149 -4.929954049698998 0 0 0
5 2 2 0.5564 -12.925453698496234 6.9244328121599015 -4.7477075721470126 0 0 0
6 2 2 0.5564 -13.93658100832979 7.378750375348269 -5.7812580264487545 0 0 0
7 3 1 -1.1128 3.8951522686082534 7.32243822553615 14.826754494120744 0 0 0
8 3 2 0.5564 4.7611620531291585 7.723014277693453 14.736774276560853 0 0 0
9 3 2 0.5564 3.281156788141544 8.031491232398304 14.629835927382626 0 0 0
10 4 1 -1.1128 -4.315554385326744 -7.312881606770597 14.447472828528666 0 0 0
11 4 2 0.5564 -4.417406203657179 -8.213641779543929 14.75858033124781 0 0 0
12 4 2 0.5564 -3.3865590457097157 -7.239976909647913 14.22347259949465 0 0 0
13 5 1 -1.1128 6.61535356751146 7.767729402415357 4.893334362554839 0 0 0
14 5 2 0.5564 6.987275269329237 6.901979062629611 4.718173987818333 0 0 0
15 5 2 0.5564 6.436807232960486 8.132316683507879 4.025163377446506 0 0 0
16 6 1 -1.1128 -12.936358746443265 3.5873748807746133 11.448832307455373 0 0 0
17 6 2 0.5564 -12.038195229713509 3.90440960924688 11.555236434058392 0 0 0
18 6 2 0.5564 -13.483716558463973 4.3553401390956505 11.619572830272324 0 0 0
19 7 1 -1.1128 -6.732646747740488 -2.085755167800083 8.332314785606068 0 0 0
20 7 2 0.5564 -6.2370979222929686 -2.1112828232008036 7.512369506695745 0 0 0
21 7 2 0.5564 -7.486358321189929 -1.5259355004009785 8.139845716554639 0 0 0
22 8 1 -1.1128 -0.920882089992308 -7.744201856048596 -7.024940349395697 0 0 0
23 8 2 0.5564 -1.105735772532383 -7.972555822113136 -6.112682632391358 0 0 0
24 8 2 0.5564 0.022476712946012167 -7.883543290742458 -7.1207613909066065 0 0 0
25 9 1 -1.1128 -3.8561805027205818 -10.139070470113355 -0.4379026294365549 0 0 0
26 9 2 0.5564 -4.174342437983518 -9.439187596959574 0.13434513754532817 0 0 0
27 9 2 0.5564 -4.635628921731944 -10.436093895533656 -0.9098780370080501 0 0 0
28 10 1 -1.1128 11.858246571179281 11.911050029118766 -13.062483816531962 0 0 0
29 10 2 0.5564 11.726901283859135 12.275813357906218 -13.938969235389964 0 0 0
30 10 2 0.5564 12.203917934760355 12.641865760918098 -12.547757468795023 0 0 0
31 11 1 -1.1128 12.051937988831728 0.4959243488046976 0.36403299879234574 0 0 0
32 11 2 0.5564 11.810778199451153 -0.3394586091634791 -0.03908959983275806 0 0 0
33 11 2 0.5564 12.556062121976357 0.25059478732539003 1.1413333288743197 0 0 0
34 12 1 -1.1128 -5.784637894253958 14.47680766590738 -0.0732488402723162 0 0 0
35 12 2 0.5564 -4.978269652428966 13.961681666983818 -0.12752612658136553 0 0 0
36 12 2 0.5564 -5.5241277487248475 -14.640699251279457 -0.3413233846873378 0 1 0
37 13 1 -1.1128 -6.781461994300666 -12.45577218623482 13.69092314688692 0 0 0
38 13 2 0.5564 -7.386340194907817 -11.729726913383505 13.850645356364868 0 0 0
39 13 2 0.5564 -6.87919216073266 -12.648540361172039 12.757213993134775 0 0 0
40 14 1 -1.1128 -13.177685927812165 -0.0012906544856068625 -3.4589677812457733 0 0 0
41 14 2 0.5564 -12.624616181103795 0.7561061895927401 -3.261497692735895 0 0 0
42 14 2 0.5564 -12.560281121968126 -0.6911770039402405 -3.7067412040675998 0 0 0
43 15 1 -1.1128 -6.524327757909455 12.674021590913833 0.6494580301111319 0 0 0
44 15 2 0.5564 -6.217166988429584 12.409466254579485 1.517901059739186 0 0 0
45 15 2 0.5564 -7.321143227732573 12.160081932898569 0.5099063426626642 0 0 0
46 16 1 -1.1128 -0.979200015332173 12.86550796735304 -13.383676274003804 0 0 0
47 16 2 0.5564 -0.727888440851779 13.301535767058223 -14.199306588801164 0 0 0
48 16 2 0.5564 -1.4927872982133503 13.521152110090089 -12.909458603036846 0 0 0
49 17 1 -1.1128 7.59620076382406 7.805339607035144 9.854966844238369 0 0 0
50 17 2 0.5564 8.553468953846483 7.777772099558307 9.892492900555371 0 0 0
51 17 2 0.5564 7.386613878997982 8.735297501297486 9.756097278101716 0 0 0
52 18 1 -1.1128 -11.110937358128387 -14.817091088491415 5.87878218283829 0 0 0
53 18 2 0.5564 -10.604921425502528 -14.287878472756258 5.260387128463228 0 0 0
54 18 2 0.5564 -12.001257412411528 -14.466937324150832 5.8218077959667704 0 0 0
55 19 1 -1.1128 10.941351644054725 3.52645167327812 6.975969381966952 0 0 0
56 19 2 0.5564 11.829636189127338 3.8644819247809825 7.099325273816728 0 0 0
57 19 2 0.5564 10.371254024830085 4.267974012239449 7.184911632064241 0 0 0
58 20 1 -1.1128 6.673804554606076 14.8510697645957 12.014333720162096 0 0 0
59 20 2 0.5564 6.935898917660557 14.34021455400457 11.246958936456664 0 0 0
60 20 2 0.5564 6.677376387857675 -14.24007520934646 11.710206572217974 0 1 0
61 21 1 -1.1128 -7.939856055629751 -6.08979805227172 -4.203492143998562 0 0 0
62 21 2 0.5564 -8.153906423156533 -5.1687990363684 -4.047051059667221 0 0 0
63 21 2 0.5564 -7.9186984622026655 -6.172438112625837 -5.158084473302042 0 0 0
64 22 1 -1.1128 0.6811054834145569 2.7418468519702786 10.10942735818725 0 0 0
65 22 2 0.5564 0.3932729112770468 3.4559264578142526 10.680192885294854 0 0 0
66 22 2 0.5564 0.12025480709501007 2.0024491177998014 10.34872016642743 0 0 0
67 23 1 -1.1128 -2.4460086069513416 10.129515074052176 -6.599698450697238 0 0 0
68 23 2 0.5564 -2.665014612084546 11.02520491546689 -6.861053836526724 0 0 0
69 23 2 0.5564 -2.8017074314341137 9.581237561174213 -7.300693210758915 0 0 0
70 24 1 -1.1128 -2.730977479401089 0.842430903430758 -0.7642958613299808 0 0 0
71 24 2 0.5564 -1.7988314975129165 0.863502126335977 -0.9860850225056657 0 0 0
72 24 2 0.5564 -3.0846756213009545 1.6514247713378596 -1.1370559512072231 0 0 0
73 25 1 -1.1128 -6.512342994633107 -9.283421762015347 -10.432448329326725 0 0 0
74 25 2 0.5564 -5.605591330820838 -9.580026967636316 -10.341029883856333 0 0 0
75 25 2 0.5564 -7.032952240063171 -10.087057916511403 -10.391723849470878 0 0 0
76 26 1 -1.1128 2.31518403035024 9.226841797140727 -13.689506865009685 0 0 0
77 26 2 0.5564 2.6640894795661842 9.20947839020385 -14.5819720237733 0 0 0
78 26 2 0.5564 1.4696594653575876 8.78019524300552 -13.753683217142939 0 0 0
79 27 1 -1.1128 0.9327092136281809 -0.1907431744826566 14.009800698848448 0 0 0
80 27 2 0.5564 1.7864316150345312 0.1521814793647689 13.74130246213059 0 0 0
81 27 2 0.5564 0.3813448743606618 -0.09822759098930563 13.23136523543804 0 0 0
82 28 1 -1.1128 7.737167724677531 1.631268630023939 11.986329284547496 0 0 0
83 28 2 0.5564 7.8084046021183955 1.7883339424909606 11.043574621386336 0 0 0
84 28 2 0.5564 6.800766255124839 1.492943769683156 12.136469416861484 0 0 0
85 29 1 -1.1128 3.3661833922568234 10.170228086664608 -10.177440625504467 0 0 0
86 29 2 0.5564 4.120379169033474 9.604380763744725 -10.005579933556985 0 0 0
87 29 2 0.5564 3.749873659637076 11.00895627584934 -10.437902411347551 0 0 0
88 30 1 -1.1128 -8.589614056865212 6.761193909832411 -11.310572268464647 0 0 0
89 30 2 0.5564 -8.665250485932502 6.716762212390265 -10.356195238742975 0 0 0
90 30 2 0.5564 -8.597499121324754 5.845940971462621 -11.594778924023478 0 0 0
91 31 1 -1.1128 -12.034158717593987 -6.615915263969102 14.814654999936531 0 0 -1
92 31 2 0.5564 -11.905462920347968 -7.40932613608033 -14.66336114994269 0 0 0
93 31 2 0.5564 -12.871248063176658 -6.261825300486891 -14.881329763976286 0 0 0
94 32 1 -1.1128 -2.261568066935507 -13.978481469704988 6.398577545235306 0 0 0
95 32 2 0.5564 -2.292069012372436 -14.692400885777689 5.759891926419704 0 0 0
96 32 2 0.5564 -3.1599692236507857 -13.910251471889374 6.725293886287802 0 0 0
97 33 1 -1.1128 12.999224392419864 -7.50986439183362 -9.353321414488189 0 0 0
98 33 2 0.5564 13.785524827370683 -7.512620781901925 -9.901276328974722 0 0 0
99 33 2 0.5564 12.62600772507945 -8.385542396217822 -9.4647704627435 0 0 0
100 34 1 -1.1128 -5.233862494661141 11.34981825970863 4.3947712031042 0 0 0
101 34 2 0.5564 -6.042864891106061 11.175444361728555 4.878133827072594 0 0 0
102 34 2 0.5564 -5.144714325448771 12.30389697169288 4.412376706918548 0 0 0
103 35 1 -1.1128 -10.643963542757536 5.083452814503955 -3.4690175932572376 0 0 0
104 35 2 0.5564 -9.770134150528916 5.38082804339705 -3.7269337162859113 0 0 0
105 35 2 0.5564 -11.055746945302314 5.856878380709948 -3.0807253561115737 0 0 0
106 36 1 -1.1128 -3.671922343522055 -0.06514051214310182 -10.813794079057645 0 0 0
107 36 2 0.5564 -3.5624895816581352 0.6280307887319252 -10.161054790923359 0 0 0
108 36 2 0.5564 -2.8703077337164724 -0.5861973527893403 -10.747180832161826 0 0 0
109 37 1 -1.1128 2.399398842293163 10.230060063964522 2.998964389643581 0 0 0
110 37 2 0.5564 2.9016133221722633 9.726653725860425 2.356396700636121 0 0 0
111 37 2 0.5564 2.545783921055595 11.14509556192747 2.7544138127000424 0 0 0
112 38 1 -1.1128 13.366547095642481 1.5662389869478814 -10.78261769293913 0 0 0
113 38 2 0.5564 13.3801837761454 2.307878463314792 -10.175727679807363 0 0 0
114 38 2 0.5564 14.240063508677077 1.1790350243368266 -10.708014033528414 0 0 0
115 39 1 -1.1128 14.441933365864282 -3.103439353652278 -10.621074618917639 0 0 0
116 39 2 0.5564 -14.761526739809865 -2.730743311340902 -11.002063354699676 1 0 0
117 39 2 0.5564 13.81705211152077 -2.376814908670766 -10.613082596308171 0 0 0
118 40 1 -1.1128 1.619006529324806 -7.647434386878595 -0.31557127466490487 0 0 0
119 40 2 0.5564 2.2654294787696836 -7.470454028188572 0.36951695546967844 0 0 0
120 40 2 0.5564 1.9564452542716493 -7.190734997234886 -1.0876362414295628 0 0 0
121 41 1 -1.1128 -0.9378510998137082 13.478423489088582 -11.132802661100797 0 0 0
122 41 2 0.5564 -0.4439452249781095 14.284713113745207 -11.289278179869584 0 0 0
123 41 2 0.5564 -1.8554560960644544 13.73542606584855 -11.235146614974017 0 0 0
124 42 1 -1.1128 -9.290823860071235 -5.691800016258337 3.868129671232436 0 0 0
125 42 2 0.5564 -8.343892011602101 -5.837462549029333 3.893290372764175 0 0 0
126 42 2 0.5564 -9.38713618576401 -4.738266784145373 3.8728040349167125 0 0 0
127 43 1 -1.1128 -11.57685811118175 4.465758625603825 3.7182702337764284 0 0 0
128 43 2 0.5564 -10.816647155560027 4.011319745362635 4.084460303382143 0 0 0
129 43 2 0.5564 -11.202400437028176 5.135758367435955 3.1443317922059277 0 0 0
130 44 1 -1.1128 8.762500796155337 -7.746539011853371 -0.8131959928006418 0 0 0
131 44 2 0.5564 9.536530300263243 -8.13011355804369 -0.3981303904130649 0 0 0
132 44 2 0.5564 8.977538532798247 -6.817589182808589 -0.9098113406350476 0 0 0
133 45 1 -1.1128 -3.536058080135077 -8.978834086552954 -13.83133385999875 0 0 0
134 45 2 0.5564 -3.8150911866449873 -8.546446002129075 -14.639858213323791 0 0 0
135 45 2 0.5564 -2.610575459219678 -9.182189788968683 -13.975041602234754 0 0 0
136 46 1 -1.1128 12.328538127042373 -2.319761801735251 -10.489590807322497 0 0 0
137 46 2 0.5564 11.733745615204855 -2.872025142206763 -10.999255040551848 0 0 0
138 46 2 0.5564 12.088331166253637 -1.423445882089374 -10.729261261650946 0 0 0
139 47 1 -1.1128 13.06206471779651 -2.599544049366674 -10.949088412914207 0 0 0
140 47 2 0.5564 13.710283422372902 -2.0232595889658214 -11.356812942146632 0 0 0
141 47 2 0.5564 13.501462068267537 -3.4490231619392926 -10.887130812880976 0 0 0
142 48 1 -1.1128 11.202398620585225 -12.146913347088674 -10.236809811656027 0 0 0
143 48 2 0.5564 11.721140397650279 -11.763237769409383 -9.52812752754004 0 0 0
144 48 2 0.5564 11.78481438372175 -12.794222188096423 -10.637192980262428 0 0 0
145 49 1 -1.1128 -13.21919128032566 -4.21224179702124 -7.412136382929781 0 0 0
146 49 2 0.5564 -12.621757979429411 -4.114255902887875 -6.669167490222221 0 0 0
147 49 2 0.5564 -12.763329879139809 -3.792989706366814 -8.143533406365592 0 0 0
148 50 1 -1.1128 -11.236112176838029 8.310365300369709 -1.1528401828511006 0 0 0
149 50 2 0.5564 -10.303126245429416 8.31425334351456 -0.9336309336983623 0 0 0
150 50 2 0.5564 -11.3009184299258 8.859166544166566 -1.9358733129725199 0 0 0
151 51 1 -1.1128 -4.643288955444456 -1.7578987242850586 9.440094556147137 0 0 0
152 51 2 0.5564 -3.75874979617653 -1.390037288820636 9.468361144544849 0 0 0
153 51 2 0.5564 -5.140788224327575 -1.1450487543820382 8.896557133009937 0 0 0
154 52 1 -1.1128 13.19855708510683 4.606440235238385 -8.839347986225901 0 0 0
155 52 2 0.5564 13.216474384127805 5.014887368958119 -7.972525934503675 0 0 0
156 52 2 0.5564 12.435664558906065 4.026817356508759 -8.815771505992503 0 0 0
157 53 1 -1.1128 5.012802005549233 12.162250735553496 -7.532271320253655 0 0 0
158 53 2 0.5564 5.788252035453334 11.60251953431419 -7.594791664789908 0 0 0
159 53 2 0.5564 5.362259041027157 13.038199403689049 -7.361633547042298 0 0 0
160 54 1 -1.1128 11.04259258823216 -1.0131426566483368 -0.10977657476749725 0 0 0
161 54 2 0.5564 11.195850191248248 -1.0763344454618928 0.8341775898741483 0 0 0
162 54 2 0.5564 10.238942453432617 -0.49691332873620236 -0.18837225111206257 0 0 0
163 55 1 -1.1128 2.876803817504647 9.159763464657813 7.669369089003048 0 0 0
164 55 2 0.5564 3.744661984484585 9.4614152025013 7.942057539550969 0 0 0
165 55 2 0.5564 2.4139706550502913 9.959354796153443 7.414491265664996 0 0 0
166 56 1 -1.1128 -1.0596889010676118 13.157322244263831 4.003629566487835 0 0 0
167 56 2 0.5564 -0.6292039968234255 13.806078361278004 3.4447657119985995 0 0 0
168 56 2 0.5564 -1.70905896320642 13.659669929532651 4.498087718410622 0 0 0
169 57 1 -1.1128 -1.7247440134342 9.393334973464967 5.517428783922726 0 0 0
170 57 2 0.5564 -1.4711947434934944 10.261662463497721 5.200804878056551 0 0 0
171 57 2 0.5564 -2.264332394091693 9.567767380207535 6.2900485179687955 0 0 0
172 58 1 -1.1128 6.38004041839373 14.819460272583449 13.520864128038951 0 0 0
173 58 2 0.5564 6.20386720653609 14.438797200540135 14.382600273855239 0 0 0
174 58 2 0.5564 5.614690762348145 14.584837507613189 12.993876841049392 0 0 0
175 59 1 -1.1128 10.24734516849864 -6.561191948913659 1.2254974452757486 0 0 0
176 59 2 0.5564 11.105127042814999 -6.796195933102725 0.8684064995636277 0 0 0
177 59 2 0.5564 10.261797941496521 -5.604153837700378 1.2744127755719525 0 0 0
178 60 1 -1.1128 0.303813406208716 -12.254969520087274 -2.4888320770147585 0 0 0
179 60 2 0.5564 1.2069278223237294 -11.982607487535963 -2.6583426508140273 0 0 0
180 60 2 0.5564 -0.21162127532705066 -11.453369469232518 -2.5902617868623983 0 0 0
181 61 1 -1.1128 2.3881783459516908 11.082882480126175 -2.1145355811307236 0 0 0
182 61 2 0.5564 1.8481532523264632 11.873508735165402 -2.071949396778172 0 0 0
183 61 2 0.5564 2.668165986936751 10.934523491636577 -1.210035680671932 0 0 0
184 62 1 -1.1128 6.543482391867343 10.943661238209087 6.3542789513853215 0 0 0
185 62 2 0.5564 6.931614884221045 10.895016726903028 7.229217486311689 0 0 0
186 62 2 0.5564 7.202193955922566 11.395058442939796 5.824313690786831 0 0 0
187 63 1 -1.1128 9.193526896506427 6.262696643550199 6.906490538396016 0 0 0
188 63 2 0.5564 9.525166333751999 6.48001751414182 7.779025628159596 0 0 0
189 63 2 0.5564 8.346136197520678 5.845478525760817 7.068914625158821 0 0 0
190 64 1 -1.1128 -14.526930394638434 11.240670246131742 0.5844214040534441 0 0 0
191 64 2 0.5564 -13.710562629048301 11.455725676971694 1.038101239368633 0 0 0
192 64 2 0.5564 14.955809368099859 12.046404628243438 0.6263438435225848 -1 0 0
193 65 1 -1.1128 -1.1483698225939873 -13.379491944707025 6.598297967490463 0 0 0
194 65 2 0.5564 -0.3275140673782515 -12.920969485838171 6.412600515052192 0 0 0
195 65 2 0.5564 -1.825070031098529 -12.832090005829027 6.19711037592946 0 0 0
196 66 1 -1.1128 -0.35764563776218 4.702842614394824 5.6737531218242525 0 0 0
197 66 2 0.5564 0.40883742556486813 5.04136728898705 5.208527028053695 0 0 0
198 66 2 0.5564 -1.0463074470000713 5.346905966242255 5.502140622849825 0 0 0
199 67 1 -1.1128 -8.852803564431763 12.428319322256046 10.626858508610667 0 0 0
200 67 2 0.5564 -8.459253360278828 12.885460386344304 11.37162078231647 0 0 0
201 67 2 0.5564 -9.72801583957808 12.183270891757491 10.93096092333867 0 0 0
202 68 1 -1.1128 11.848317598076544 1.6629459076134347 -10.935957034367858 0 0 0
203 68 2 0.5564 10.992412368642299 1.2922849662176226 -11.15633685365874 0 0 0
204 68 2 0.5564 12.260951198725675 1.0001167521525205 -10.380156206025271 0 0 0
205 69 1 -1.1128 -1.7276415502824838 14.370500551244865 -8.53206337124511 0 0 0
206 69 2 0.5564 -0.7692515501505633 14.374878629113699 -8.532072388538532 0 0 0
207 69 2 0.5564 -1.9718376293241717 -14.702754209906342 -8.537985849759867 0 1 0
208 70 1 -1.1128 -2.0030478074572553 -5.597282375194568 0.40895802270826453 0 0 0
209 70 2 0.5564 -1.4038375543055346 -5.906613746866007 1.0899805884266973 0 0 0
210 70 2 0.5564 -1.4510062359560914 -5.080186739176695 -0.1795874258730643 0 0 0
211 71 1 -1.1128 11.067895420754837 -1.9002511430104012 -1.0214024940937871 0 0 0
212 71 2 0.5564 11.813636791720295 -2.498350242750866 -0.9530077975142566 0 0 0
213 71 2 0.5564 11.453838484296462 -1.0260979740099259 -0.9477293827808224 0 0 0
214 72 1 -1.1128 9.178856213800023 -4.421600839955318 -8.75907888934334 0 0 0
215 72 2 0.5564 9.66039969444036 -3.7169201936213976 -9.19505093309752 0 0 0
216 72 2 0.5564 8.759236638045355 -3.9972535421260242 -8.009164013528459 0 0 0
217 73 1 -1.1128 14.672523613857551 -10.366132718157889 3.6661280027436396 0 0 0
218 73 2 0.5564 -14.403966525771242 -10.179495504442693 3.490552810151455 1 0 0
219 73 2 0.5564 14.651941775670586 -10.629968615366863 4.587263468232175 0 0 0
220 74 1 -1.1128 3.702961132809323 14.896727461800936 -14.66833518640038 0 -1 0
221 74 2 0.5564 3.833576088226862 -14.315641144298732 14.801469490380061 0 0 -1
222 74 2 0.5564 2.934995685123354 14.4724675059044 14.94597569075175 0 -1 -1
223 75 1 -1.1128 7.9543710177908125 6.97638011749333 -5.1639761299699085 0 0 0
224 75 2 0.5564 8.286559715126078 6.0778230893703515 -5.191841818073745 0 0 0
225 75 2 0.5564 8.360750718210817 7.4059458966605565 -5.918199120175724 0 0 0
226 76 1 -1.1128 -2.257957233658852 5.5832230671518435 5.728343076997732 0 0 0
227 76 2 0.5564 -1.9347361381428834 5.26872027197562 4.882679624293408 0 0 0
228 76 2 0.5564 -3.2121721913025967 5.5725375663608885 5.639555841531174 0 0 0
229 77 1 -1.1128 -8.658665162924404 9.797772678850786 6.087547187770982 0 0 0
230 77 2 0.5564 -8.302544475401259 10.657235595263689 6.317834207007997 0 0 0
231 77 2 0.5564 -9.565221147109792 9.8227809122355 6.397473589196608 0 0 0
232 78 1 -1.1128 9.548894034542057 -12.116984930902685 -12.778706890106752 0 0 0
233 78 2 0.5564 9.801742206064862 -12.897945329313155 -12.284036072014423 0 0 0
234 78 2 0.5564 10.233079436926245 -11.475677439857602 -12.580872172238914 0 0 0
235 79 1 -1.1128 7.7111857043662635 3.562949144973315 -8.649528773700748 0 0 0
236 79 2 0.5564 8.66156037865269 3.638689766013947 -8.55164161009208 0 0 0
237 79 2 0.5564 7.387690726956912 4.4598263532462585 -8.552133643578888 0 0 0
238 80 1 -1.1128 -8.343852366431324 -12.55633637085794 -3.636133225520691 0 0 0
239 80 2 0.5564 -8.642587435884808 -11.82579937744866 -3.092438808095655 0 0 0
240 80 2 0.5564 -8.794348234110766 -13.322392478538612 -3.2773365538682286 0 0 0
241 81 1 -1.1128 13.466042359838607 13.169861513253853 -3.0260534747167473 0 0 0
242 81 2 0.5564 14.279332440243385 13.202497073883922 -3.5320423335837674 0 0 0
243 81 2 0.5564 12.948995346616497 13.906696974396848 -3.355081479330772 0 0 0
244 82 1 -1.1128 -7.0637271295461055 5.4466975997192355 -6.300055273001541 0 0 0
245 82 2 0.5564 -6.299060188515512 5.508141472609859 -6.874546073431902 0 0 0
246 82 2 0.5564 -7.407885900946135 6.340369064359453 -6.262245329121238 0 0 0
247 83 1 -1.1128 8.133692654859548 8.5057241686023 -1.975171003220954 0 0 0
248 83 2 0.5564 7.889272484714337 9.038480920444892 -2.733431897499644 0 0 0
249 83 2 0.5564 8.894958812840727 8.003663143450687 -2.2700135073418575 0 0 0
250 84 1 -1.1128 -6.441243071984571 -9.413969123807812 -14.960303084971095 0 0 0
251 84 2 0.5564 -6.129194193223273 -8.524278305544684 -14.788238256600794 0 0 0
252 84 2 0.5564 -7.03553304046499 -9.604680013950174 -14.23299824637544 0 0 0
253 85 1 -1.1128 -9.490289082117839 14.192626301282624 -7.661180964604695 0 0 0
254 85 2 0.5564 -8.53251595164056 14.174087044319794 -7.690463834802488 0 0 0
255 85 2 0.5564 -9.713049596942778 -14.875491540270547 -7.68347298791816 0 1 0
256 86 1 -1.1128 9.352773424428062 -11.215874668324156 -3.0466826383615144 0 0 0
257 86 2 0.5564 10.310797830829182 -11.214907608237121 -3.0734942316481355 0 0 0
258 86 2 0.5564 9.111777167686997 -10.28827329955785 -3.0468909642442723 0 0 0
259 87 1 -1.1128 3.2225233133754787 -9.363032886291316 9.933073961069862 0 0 0
260 87 2 0.5564 2.355822850916543 -9.453910247681707 9.534197822951539 0 0 0
261 87 2 0.5564 3.512563530071766 -10.263823693863966 10.08465275969086 0 0 0
262 88 1 -1.1128 -10.645306434797508 14.57950347668995 -7.370174431340673 0 0 0
263 88 2 0.5564 -10.258615453331249 14.75803053393796 -6.511612415710452 0 0 0
264 88 2 0.5564 -9.900271940035005 14.57679604107841 -7.973034124724126 0 0 0
265 89 1 -1.1128 -8.192422168959682 -12.102259312352471 -8.11778810531107 0 0 0
266 89 2 0.5564 -8.432326839844523 -11.353100101086234 -8.66527032882393 0 0 0
267 89 2 0.5564 -7.351323617838711 -12.397276574061319 -8.469983478784394 0 0 0
268 90 1 -1.1128 3.8556994282351083 5.926605931671671 9.184164419812491 0 0 0
269 90 2 0.5564 4.438911961153234 5.211139450182202 8.926285736489689 0 0 0
270 90 2 0.5564 3.8299581743304403 6.502912039645924 8.418832990783875 0 0 0
271 91 1 -1.1128 6.241160574865611 7.424719376092938 5.053174957633028 0 0 0
272 91 2 0.5564 5.8230574182938195 7.7664569539482775 5.8449676946206 0 0 0
273 91 2 0.5564 5.597635082176233 7.5734608364833855 4.3587151267429975 0 0 0
274 92 1 -1.1128 4.278353814727686 -13.352001227049808 3.2205240517922853 0 0 0
275 92 2 0.5564 3.505847781514165 -12.785685082872812 3.252943390052197 0 0 0
276 92 2 0.5564 4.224490000095136 -13.782654054373525 2.366029832799951 0 0 0
277 93 1 -1.1128 -8.306835383758875 -5.160725488423042 6.246358589521851 0 0 0
278 93 2 0.5564 -7.856495347349374 -5.9829292034276875 6.445620885602289 0 0 0
279 93 2 0.5564 -8.405974319809324 -5.166336079874105 5.293120145520375 0 0 0
280 94 1 -1.1128 -11.410303650011471 7.541231382283156 0.9727874246491619 0 0 0
281 94 2 0.5564 -11.144095988600544 8.424182403687023 1.2336734817852084 0 0 0
282 94 2 0.5564 -11.876276189020956 7.665951186654452 0.14463399575652036 0 0 0
283 95 1 -1.1128 1.3580783004465042 2.3666042972934958 -5.215983315679097 0 0 0
284 95 2 0.5564 1.4575802643286098 2.7791626645619107 -4.356666428389882 0 0 0
285 95 2 0.5564 2.036362557507266 2.7732352381180347 -5.757375302217206 0 0 0
286 96 1 -1.1128 5.910109070203509 -10.425142919052119 -9.948389700864563 0 0 0
287 96 2 0.5564 5.880099876361846 -10.584050046471365 -10.893047592982306 0 0 0
288 96 2 0.5564 6.478838121526244 -11.116733619006169 -9.606668896085854 0 0 0
289 97 1 -1.1128 -0.7142737194155501 10.539303180306748 9.318095698041752 0 0 0
290 97 2 0.5564 0.22674066109496727 10.398874625780469 9.433431367919146 0 0 0
291 97 2 0.5564 -0.8332011409652635 11.482134796647122 9.442387090070858 0 0 0
292 98 1 -1.1128 1.55089284253244 6.826492080532487 -5.626135373528492 0 0 0
293 98 2 0.5564 2.477114699688088 7.071585464995363 -5.602200791441572 0 0 0
294 98 2 0.5564 1.0872128834836094 7.611617263803557 -5.3310034019123265 0 0 0
295 99 1 -1.1128 -11.111786625703774 0.9776330032137512 -5.3479460830900365 0 0 0
296 99 2 0.5564 -10.682211563858838 0.136570347631769 -5.511070071596641 0 0 0
297 99 2 0.5564 -11.026102402802923 1.455140761603496 -6.174485914630827 0 0 0
298 100 1 -1.1128 2.5324745898032823 0.17767264591841225 -1.9875983181384071 0 0 0
299 100 2 0.5564 3.1352924881932926 0.7397820433378137 -1.4985439584671658 0 0 0
300 100 2 0.5564 2.262953902715968 0.7100681465439754 -2.7375564293990546 0 0 0
301 101 1 -1.1128 -7.338936663797323 -3.9395695547521155 -3.583637953826651 0 0 0
302 101 2 0.5564 -7.515860584355635 -4.527909703670881 -2.8480535905449664 0 0 0
303 101 2 0.5564 -6.8493545716350335 -3.2121559183285964 -3.196724119647635 0 0 0
304 102 1 -1.1128 -1.907042651728719 -0.9437713039839172 -3.4446807358108047 0 0 0
305 102 2 0.5564 -0.9882607958762369 -1.2154660492159457 -3.421176975056998 0 0 0
306 102 2 0.5564 -1.8867617240419587 -0.010102516516035664 -3.2293326042182136 0 0 0
307 103 1 -1.1128 -6.686073522340826 -13.035254552775228 -3.863029896916117 0 0 0
308 103 2 0.5564 -6.284176401407587 -12.431195411017868 -3.236833587884411 0 0 0
309 103 2 0.5564 -6.893375726947869 -12.489861288620366 -4.623355828263696 0 0 0
310 104 1 -1.1128 -7.013634987156901 5.067916263518342 5.188390693550085 0 0 0
311 104 2 0.5564 -7.795634418559509 5.017285960909149 4.6366262313529445 0 0 0
312 104 2 0.5564 -7.337725264739401 5.375371424820887 6.0363059925422204 0 0 0
313 105 1 -1.1128 0.3158261230923132 6.494946590982623 6.725810123241133 0 0 0
314 105 2 0.5564 1.1468794070792694 6.940927116033984 6.89605221688841 0 0 0
315 105 2 0.5564 -0.20843202789704462 7.138879021240144 6.247241471025108 0 0 0
316 106 1 -1.1128 13.352045653536747 -1.5179422728638863 13.400069744461902 0 0 0
317 106 2 0.5564 14.02768753418929 -0.8388564165526537 13.370387950945789 0 0 0
318 106 2 0.5564 12.648020888577772 -1.1804408726223712 12.844223116641352 0 0 0
319 107 1 -1.1128 -5.556779802435775 -1.5175746518818554 0.46672673957274974 0 0 0
320 107 2 0.5564 -4.6446010851689215 -1.425269781822704 0.7459047450258295 0 0 0
321 107 2 0.5564 -5.858211004132765 -0.6180799978657439 0.3304471132893462 0 0 0
322 108 1 -1.1128 4.892729875193437 -2.803067403470857 3.529956560007497 0 0 0
323 108 2 0.5564 4.063748001440348 -2.993970702245452 3.088509458413439 0 0 0
324 108 2 0.5564 5.565516825661616 -3.0380004155339506 2.889107328422806 0 0 0
325 109 1 -1.1128 14.311706367584504 -10.737925745320485 5.20463290624221 0 0 0
326 109 2 0.5564 -14.790568968760235 -10.945034074089454 4.940573957483462 1 0 0
327 109 2 0.5564 14.26410300398658 -9.78159013858096 5.163649183176742 0 0 0
328 110 1 -1.1128 -5.06957325900131 1.192647729884064 0.6390931177552062 0 0 0
329 110 2 0.5564 -4.350690057392838 0.6494683099991655 0.3124532238985953 0 0 0
330 110 2 0.5564 -4.63615639472647 1.911799155821168 1.1011478621684576 0 0 0
331 111 1 -1.1128 9.652676291807236 -14.863102615640047 -6.6994741310820904 0 0 0
332 111 2 0.5564 10.604050813042438 -14.838908407354646 -6.8127513160309325 0 0 0
333 111 2 0.5564 9.374756535966146 -13.952437785480914 -6.808898602405758 0 0 0
334 112 1 -1.1128 4.551387599155117 1.5220651148044062 12.279851757668794 0 0 0
335 112 2 0.5564 3.7569808873722295 1.0197920345674607 12.092314323689358 0 0 0
336 112 2 0.5564 4.559731251323651 1.6104369123113937 13.234128629113279 0 0 0
337 113 1 -1.1128 -7.317951241236472 14.032458940166544 -7.378886262753575 0 0 0
338 113 2 0.5564 -6.708767961638616 13.393229450858907 -7.751461022845963 0 0 0
339 113 2 0.5564 -6.978081903766353 14.882112286257192 -7.663669625021434 0 0 0
340 114 1 -1.1128 10.095718248660324 5.501029995702127 -1.2983953176739984 0 0 0
341 114 2 0.5564 11.050433417305834 5.5448782039201285 -1.3699972826906484 0 0 0
342 114 2 0.5564 9.811631527341667 6.416221725039284 -1.3139636131259997 0 0 0
343 115 1 -1.1128 9.140683003149245 -14.373339749846586 -10.291882998761615 0 0 0
344 115 2 0.5564 9.743170167263555 14.92956939491255 -10.028057077713171 0 -1 0
345 115 2 0.5564 9.655266692323924 -13.568696628941442 -10.212657918670738 0 0 0
346 116 1 -1.1128 6.128385250734706 6.3968983338558045 -2.247708748102244 0 0 0
347 116 2 0.5564 6.066464529993381 5.472091865031873 -2.00392733050795 0 0 0
348 116 2 0.5564 6.43064580843576 6.835376877952753 -1.4509034644068686 0 0 0
349 117 1 -1.1128 2.494038535329172 7.2021532218223046 14.921054904476204 0 0 0
350 117 2 0.5564 2.6219035683314202 8.065694481979815 -14.683372617536623 0 0 1
351 117 2 0.5564 2.3019584085289657 7.386060666099434 14.000290648367251 0 0 0
352 118 1 -1.1128 5.643332151925904 -6.597306820412437 7.933942150177804 0 0 0
353 118 2 0.5564 6.2845438370683855 -7.272442845072366 7.706852997986145 0 0 0
354 118 2 0.5564 5.683247712847807 -5.974193474446363 7.206852028820586 0 0 0
355 119 1 -1.1128 -10.093205407671702 14.810771473929664 -0.1485991186826952 0 -1 0
356 119 2 0.5564 -9.135747526856703 14.842734306975379 -0.12061083954760692 0 -1 0
357 119 2 0.5564 -10.364943486420685 -14.270652672268543 -0.11859318810024724 0 0 0
358 120 1 -1.1128 -12.89753559058351 -10.167493352190164 12.348775585949909 0 0 0
359 120 2 0.5564 -12.133081373356024 -10.72577784970141 12.198913217085257 0 0 0
360 120 2 0.5564 -12.77686341358159 -9.429433795638028 11.749417716910317 0 0 0
361 121 1 -1.1128 8.40641132659995 7.05194551926634 -2.0642686820225604 0 0 0
362 121 2 0.5564 9.270981531413412 7.412673705802047 -1.861971632149199 0 0 0
363 121 2 0.5564 7.791887865687538 7.736504015894762 -1.7954488182065331 0 0 0
364 122 1 -1.1128 -14.780853969404127 2.203817297804762 0.745958700200623 0 0 0
365 122 2 0.5564 -14.144288785733215 2.9198760066441083 0.7219742795625073 0 0 0
366 122 2 0.5564 14.49589487318595 2.5071547385118045 0.19512506027790638 -1 0 0
367 123 1 -1.1128 -13.25633950359204 1.0302732001870347 -3.3189116687926634 0 0 0
368 123 2 0.5564 -12.301286639318446 0.9610228621630401 -3.359023725912299 0 0 0
369 123 2 0.5564 -13.425894887366304 1.9707480756279474 -3.246237608787998 0 0 0
370 124 1 -1.1128 -8.708579102582712 -3.7677571808429904 3.862582432609536 0 0 0
371 124 2 0.5564 -7.77270972544161 -3.6222338835328602 3.7159466973008652 0 0 0
372 124 2 0.5564 -9.094380878111512 -2.8907599605934173 3.838994211537421 0 0 0
373 125 1 -1.1128 4.48666258807025 6.0183446432947205 1.2195860117030455 0 0 0
374 125 2 0.5564 5.432653057847329 5.880838701082859 1.2883225154501121 0 0 0
375 125 2 0.5564 4.395484067665524 6.939602846854356 0.9716075080159761 0 0 0