LAMMPS data file via write_data, version 29 Sep 2021, timestep = 0

11271 atoms
2 atom types
7514 bonds
1 bond types
3757 angles
1 angle types

-35.699999999999996 35.699999999999996 xlo xhi
-35.699999999999996 35.699999999999996 ylo yhi
-35.699999999999996 35.699999999999996 zlo zhi

Masses

1 12.011
2 15.9994

Pair Coeffs # lj/cut/coul/cut

1 0.0537 2.8
2 0.157 3.05

Bond Coeffs # harmonic

1 0 1.16

Angle Coeffs # harmonic

1 0 180

Atoms # full

1 1 1 0.7 -32 -32 -24 0 0 0
2 1 2 -0.35 -32.438999344646376 -33.05095335403711 -24.219946864124474 0 0 0
3 1 2 -0.35 -31.561000655353624 -30.949046645962884 -23.780053135875526 0 0 0
4 2 1 0.7 -28 -32 -24 0 0 0
5 2 2 -0.35 -28.7161589871325 -31.2751817656526 -24.554395916567643 0 0 0
6 2 2 -0.35 -27.2838410128675 -32.724818234347396 -23.445604083432357 0 0 0
7 3 1 0.7 -24 -32 -24 0 0 0
8 3 2 -0.35 -23.28410287681097 -32.679886828524225 -24.60897061456932 0 0 0
9 3 2 -0.35 -24.71589712318903 -31.32011317147577 -23.39102938543068 0 0 0
10 4 1 0.7 -20 -32 -24 0 0 0
11 4 2 -0.35 -21.14483905867023 -31.813092296313982 -24.003006666906657 0 0 0
12 4 2 -0.35 -18.85516094132977 -32.18690770368602 -23.996993333093343 0 0 0
13 5 1 0.7 -16 -32 -24 0 0 0
14 5 2 -0.35 -15.72944537762744 -32.28438225624612 -22.90842914630098 0 0 0
15 5 2 -0.35 -16.270554622372558 -31.71561774375388 -25.09157085369902 0 0 0
16 6 1 0.7 -12 -32 -24 0 0 0
17 6 2 -0.35 -12.246118964451835 -32.71820673006411 -24.87704307090802 0 0 0
18 6 2 -0.35 -11.753881035548165 -31.281793269935886 -23.12295692909198 0 0 0
19 7 1 0.7 -8 -32 -24 0 0 0
20 7 2 -0.35 -9.159674637567328 -31.980651679595944 -23.980496731539823 0 0 0
21 7 2 -0.35 -6.840325362432672 -32.019348320404056 -24.019503268460177 0 0 0
22 8 1 0.7 -4 -32 -24 0 0 0
23 8 2 -0.35 -4.271549590108749 -32.602795469031996 -24.95315184657339 0 0 0
24 8 2 -0.35 -3.728450409891251 -31.397204530968004 -23.04684815342661 0 0 0
25 9 1 0.7 0 -32 -24 0 0 0
26 9 2 -0.35 -0.8207753556069014 -32.3864651600377 -23.27710824067126 0 0 0
27 9 2 -0.35 0.8207753556069014 -31.6135348399623 -24.72289175932874 0 0 0
28 10 1 0.7 4 -32 -24 0 0 0
29 10 2 -0.35 3.437895549706051 -31.214237325693993 -23.357959809180755 0 0 0
30 10 2 -0.35 4.5621044502939485 -32.78576267430601 -24.642040190819245 0 0 0
31 11 1 0.7 8 -32 -24 0 0 0
32 11 2 -0.35 7.160593126179818 -32.66561406989464 -24.44492022896439 0 0 0
33 11 2 -0.35 8.839406873820181 -31.33438593010536 -23.55507977103561 0 0 0
34 12 1 0.7 12 -32 -24 0 0 0
35 12 2 -0.35 12.822409886602404 -32.73680545886774 -24.355471087715042 0 0 0
36 12 2 -0.35 11.177590113397596 -31.263194541132258 -23.644528912284958 0 0 0
37 13 1 0.7 16 -32 -24 0 0 0
38 13 2 -0.35 16.905508332324565 -31.345581095761332 -24.31207460304524 0 0 0
39 13 2 -0.35 15.094491667675435 -32.65441890423867 -23.68792539695476 0 0 0
40 14 1 0.7 20 -32 -24 0 0 0
41 14 2 -0.35 20.76653301862176 -31.205087945143646 -23.644835310867396 0 0 0
42 14 2 -0.35 19.23346698137824 -32.794912054856354 -24.355164689132604 0 0 0
43 15 1 0.7 24 -32 -24 0 0 0
44 15 2 -0.35 23.04874923333892 -31.742505418959002 -24.611897474795594 0 0 0
45 15 2 -0.35 24.95125076666108 -32.257494581041 -23.388102525204406 0 0 0
46 16 1 0.7 28 -32 -24 0 0 0
47 16 2 -0.35 27.465139747920183 -32.999087224456716 -24.24768776447878 0 0 0
48 16 2 -0.35 28.534860252079817 -31.000912775543284 -23.75231223552122 0 0 0
49 17 1 0.7 32 -32 -24 0 0 0
50 17 2 -0.35 32.42825435593864 -32.2286307093166 -22.94646964667506 0 0 0
51 17 2 -0.35 31.571745644061362 -31.771369290683403 -25.05353035332494 0 0 0
52 18 1 0.7 -32 -28 -24 0 0 0
53 18 2 -0.35 -32.47497358569654 -27.757014846836164 -25.030028304578334 0 0 0
54 18 2 -0.35 -31.525026414303458 -28.242985153163836 -22.969971695421666 0 0 0
55 19 1 0.7 -28 -28 -24 0 0 0
56 19 2 -0.35 -28.376374205705744 -28.518305072578645 -23.03288971207074 0 0 0
57 19 2 -0.35 -27.623625794294256 -27.481694927421355 -24.96711028792926 0 0 0
58 20 1 0.7 -24 -28 -24 0 0 0
59 20 2 -0.35 -25.0397854916112 -27.488897689889992 -24.05674997828251 0 0 0
60 20 2 -0.35 -22.9602145083888 -28.511102310110008 -23.94325002171749 0 0 0
61 21 1 0.7 -20 -28 -24 0 0 0
62 21 2 -0.35 -19.397855630767378 -28.050624300484706 -23.009818532388188 0 0 0
63 21 2 -0.35 -20.602144369232622 -27.949375699515294 -24.990181467611812 0 0 0
64 22 1 0.7 -16 -28 -24 0 0 0
65 22 2 -0.35 -15.319155120367308 -27.210376692624205 -24.50847348242249 0 0 0
66 22 2 -0.35 -16.68084487963269 -28.789623307375795 -23.49152651757751 0 0 0
67 23 1 0.7 -12 -28 -24 0 0 0
68 23 2 -0.35 -11.611610906691144 -27.696810600171315 -25.050157178726234 0 0 0
69 23 2 -0.35 -12.388389093308856 -28.303189399828685 -22.949842821273766 0 0 0
70 24 1 0.7 -8 -28 -24 0 0 0
71 24 2 -0.35 -8.286967030751738 -26.93375249952804 -24.355480225890037 0 0 0
72 24 2 -0.35 -7.713032969248261 -29.06624750047196 -23.644519774109963 0 0 0
73 25 1 0.7 -4 -28 -24 0 0 0
74 25 2 -0.35 -4.386039054916638 -27.12775841010188 -24.66012760655124 0 0 0
75 25 2 -0.35 -3.6139609450833623 -28.87224158989812 -23.33987239344876 0 0 0
76 26 1 0.7 0 -28 -24 0 0 0
77 26 2 -0.35 -0.5655341632710672 -28.9895283534213 -23.78411867160724 0 0 0
78 26 2 -0.35 0.5655341632710672 -27.0104716465787 -24.21588132839276 0 0 0
79 27 1 0.7 4 -28 -24 0 0 0
80 27 2 -0.35 3.4744180333891075 -28.15795573366786 -22.978034451375745 0 0 0
81 27 2 -0.35 4.5255819666108925 -27.84204426633214 -25.021965548624255 0 0 0
82 28 1 0.7 8 -28 -24 0 0 0
83 28 2 -0.35 8.392289769290828 -28.34436352811719 -25.035916259845568 0 0 0
84 28 2 -0.35 7.607710230709172 -27.65563647188281 -22.964083740154432 0 0 0
85 29 1 0.7 12 -28 -24 0 0 0
86 29 2 -0.35 11.147952131704287 -28.652978489984985 -24.43958335017339 0 0 0
87 29 2 -0.35 12.852047868295713 -27.347021510015015 -23.56041664982661 0 0 0
88 30 1 0.7 16 -28 -24 0 0 0
89 30 2 -0.35 15.86873621553408 -26.891081271820873 -24.314116337017467 0 0 0
90 30 2 -0.35 16.131263784465922 -29.108918728179127 -23.685883662982533 0 0 0
91 31 1 0.7 20 -28 -24 0 0 0
92 31 2 -0.35 18.991548933077617 -28.22516636564539 -23.472812601245867 0 0 0
93 31 2 -0.35 21.008451066922383 -27.77483363435461 -24.527187398754133 0 0 0
94 32 1 0.7 24 -28 -24 0 0 0
95 32 2 -0.35 23.05036251133177 -27.795364344876997 -24.633965999694208 0 0 0
96 32 2 -0.35 24.94963748866823 -28.204635655123003 -23.366034000305792 0 0 0
97 33 1 0.7 28 -28 -24 0 0 0
98 33 2 -0.35 28.79264788085282 -28.682086279930168 -23.497936613851834 0 0 0
99 33 2 -0.35 27.20735211914718 -27.317913720069832 -24.502063386148166 0 0 0
100 34 1 0.7 32 -28 -24 0 0 0
101 34 2 -0.35 31.013764720712892 -27.391897982318017 -23.943858126317487 0 0 0
102 34 2 -0.35 32.98623527928711 -28.608102017681983 -24.056141873682513 0 0 0
103 35 1 0.7 -32 -24 -24 0 0 0
104 35 2 -0.35 -32.335814843430065 -23.06554654051878 -24.599687521127148 0 0 0
105 35 2 -0.35 -31.664185156569935 -24.93445345948122 -23.400312478872852 0 0 0
106 36 1 0.7 -28 -24 -24 0 0 0
107 36 2 -0.35 -29.141409842433166 -23.84479342061561 -23.863272207241945 0 0 0
108 36 2 -0.35 -26.858590157566834 -24.15520657938439 -24.136727792758055 0 0 0
109 37 1 0.7 -24 -24 -24 0 0 0
110 37 2 -0.35 -24.980109264879754 -24.618510749894803 -24.04929788191633 0 0 0
111 37 2 -0.35 -23.019890735120246 -23.381489250105197 -23.95070211808367 0 0 0
112 38 1 0.7 -20 -24 -24 0 0 0
113 38 2 -0.35 -21.012998968279344 -24.53914077776572 -23.830411344674367 0 0 0
114 38 2 -0.35 -18.987001031720656 -23.46085922223428 -24.169588655325633 0 0 0
115 39 1 0.7 -16 -24 -24 0 0 0
116 39 2 -0.35 -16.65311931629635 -23.17539722475051 -23.511056831797987 0 0 0
117 39 2 -0.35 -15.346880683703649 -24.82460277524949 -24.488943168202013 0 0 0
118 40 1 0.7 -12 -24 -24 0 0 0
119 40 2 -0.35 -12.14512041664236 -23.991659254789898 -22.849143581221842 0 0 0
120 40 2 -0.35 -11.85487958335764 -24.008340745210102 -25.150856418778158 0 0 0
121 41 1 0.7 -8 -24 -24 0 0 0
122 41 2 -0.35 -8.824843361550148 -24.511668657866437 -23.36483969467243 0 0 0
123 41 2 -0.35 -7.1751566384498515 -23.488331342133563 -24.63516030532757 0 0 0
124 42 1 0.7 -4 -24 -24 0 0 0
125 42 2 -0.35 -5.088435654607361 -23.627715954159886 -24.149373407915736 0 0 0
126 42 2 -0.35 -2.911564345392639 -24.372284045840114 -23.850626592084264 0 0 0
127 43 1 0.7 0 -24 -24 0 0 0
128 43 2 -0.35 -0.479808798436012 -23.121155139573233 -24.58567501931092 0 0 0
129 43 2 -0.35 0.479808798436012 -24.878844860426767 -23.41432498068908 0 0 0
130 44 1 0.7 4 -24 -24 0 0 0
131 44 2 -0.35 2.875280072365917 -23.78577094051633 -23.813691131570387 0 0 0
132 44 2 -0.35 5.124719927634083 -24.21422905948367 -24.186308868429613 0 0 0
133 45 1 0.7 8 -24 -24 0 0 0
134 45 2 -0.35 9.0088106039897 -23.428994646271253 -24.043058695881875 0 0 0
135 45 2 -0.35 6.991189396010301 -24.571005353728747 -23.956941304118125 0 0 0
136 46 1 0.7 12 -24 -24 0 0 0
137 46 2 -0.35 13.04786884237618 -24.327408896598765 -23.62533441096735 0 0 0
138 46 2 -0.35 10.95213115762382 -23.672591103401235 -24.37466558903265 0 0 0
139 47 1 0.7 16 -24 -24 0 0 0
140 47 2 -0.35 15.070084814625366 -23.96194020926309 -24.692393818818974 0 0 0
141 47 2 -0.35 16.929915185374636 -24.03805979073691 -23.307606181181026 0 0 0
142 48 1 0.7 20 -24 -24 0 0 0
143 48 2 -0.35 20.026166252458122 -23.238737231200087 -24.8748681752535 0 0 0
144 48 2 -0.35 19.973833747541878 -24.761262768799913 -23.1251318247465 0 0 0
145 49 1 0.7 24 -24 -24 0 0 0
146 49 2 -0.35 22.851768518802366 -23.974755819903265 -24.162871719331296 0 0 0
147 49 2 -0.35 25.148231481197634 -24.025244180096735 -23.837128280668704 0 0 0
148 50 1 0.7 28 -24 -24 0 0 0
149 50 2 -0.35 26.84496091289394 -23.96708795479465 -23.89801223339243 0 0 0
150 50 2 -0.35 29.15503908710606 -24.03291204520535 -24.10198776660757 0 0 0
151 51 1 0.7 32 -24 -24 0 0 0
152 51 2 -0.35 30.871288116438347 -23.804457914503395 -23.817317825975426 0 0 0
153 51 2 -0.35 33.12871188356165 -24.195542085496605 -24.182682174024574 0 0 0
154 52 1 0.7 -32 -20 -24 0 0 0
155 52 2 -0.35 -32.98863139009046 -19.50606601623216 -24.352472969470043 0 0 0
156 52 2 -0.35 -31.011368609909535 -20.49393398376784 -23.647527030529957 0 0 0
157 53 1 0.7 -28 -20 -24 0 0 0
158 53 2 -0.35 -29.113401975047516 -20.14405646765206 -23.708137402040105 0 0 0
159 53 2 -0.35 -26.886598024952484 -19.85594353234794 -24.291862597959895 0 0 0
160 54 1 0.7 -24 -20 -24 0 0 0
161 54 2 -0.35 -24.089871201595628 -20.14243262121242 -25.14770907269147 0 0 0
162 54 2 -0.35 -23.910128798404372 -19.85756737878758 -22.85229092730853 0 0 0
163 55 1 0.7 -20 -20 -24 0 0 0
164 55 2 -0.35 -21.159973524090592 -20.00141032940629 -23.992290630387625 0 0 0
165 55 2 -0.35 -18.840026475909408 -19.99858967059371 -24.007709369612375 0 0 0
166 56 1 0.7 -16 -20 -24 0 0 0
167 56 2 -0.35 -16.299190784743907 -20.076683097134158 -25.118125474594976 0 0 0
168 56 2 -0.35 -15.700809215256093 -19.923316902865842 -22.881874525405024 0 0 0
169 57 1 0.7 -12 -20 -24 0 0 0
170 57 2 -0.35 -11.168658607235145 -19.979950227111605 -23.191254369234112 0 0 0
171 57 2 -0.35 -12.831341392764855 -20.020049772888395 -24.808745630765888 0 0 0
172 58 1 0.7 -8 -20 -24 0 0 0
173 58 2 -0.35 -8.400364408712482 -18.92545664235559 -23.82488600062077 0 0 0
174 58 2 -0.35 -7.599635591287519 -21.07454335764441 -24.17511399937923 0 0 0
175 59 1 0.7 -4 -20 -24 0 0 0
176 59 2 -0.35 -4.81782229880406 -20.23987862645193 -23.213091535087862 0 0 0
177 59 2 -0.35 -3.18217770119594 -19.76012137354807 -24.786908464912138 0 0 0
178 60 1 0.7 0 -20 -24 0 0 0
179 60 2 -0.35 0.10985853863255098 -20.949988857023076 -24.65654571281938 0 0 0
180 60 2 -0.35 -0.10985853863255098 -19.050011142976924 -23.34345428718062 0 0 0
181 61 1 0.7 4 -20 -24 0 0 0
182 61 2 -0.35 3.234466876554493 -20.8292418297969 -23.731826502758274 0 0 0
183 61 2 -0.35 4.765533123445507 -19.1707581702031 -24.268173497241726 0 0 0
184 62 1 0.7 8 -20 -24 0 0 0
185 62 2 -0.35 7.512272513015348 -18.970696180306003 -24.219671448310844 0 0 0
186 62 2 -0.35 8.487727486984651 -21.029303819693997 -23.780328551689156 0 0 0
187 63 1 0.7 12 -20 -24 0 0 0
188 63 2 -0.35 11.122186322703223 -20.42526371890153 -24.62784864206013 0 0 0
189 63 2 -0.35 12.877813677296777 -19.57473628109847 -23.37215135793987 0 0 0
190 64 1 0.7 16 -20 -24 0 0 0
191 64 2 -0.35 15.906875086026602 -20.950083657497984 -23.341009260950734 0 0 0
192 64 2 -0.35 16.093124913973398 -19.049916342502016 -24.658990739049266 0 0 0
193 65 1 0.7 20 -20 -24 0 0 0
194 65 2 -0.35 19.72539393145076 -19.21367563724352 -24.80739426778467 0 0 0
195 65 2 -0.35 20.27460606854924 -20.78632436275648 -23.19260573221533 0 0 0
196 66 1 0.7 24 -20 -24 0 0 0
197 66 2 -0.35 23.352590142890335 -20.804908729689878 -24.52780906944298 0 0 0
198 66 2 -0.35 24.647409857109665 -19.195091270310122 -23.47219093055702 0 0 0
199 67 1 0.7 28 -20 -24 0 0 0
200 67 2 -0.35 27.812124075754983 -20.575203989029017 -23.01033186971885 0 0 0
201 67 2 -0.35 28.187875924245017 -19.424796010970983 -24.98966813028115 0 0 0
202 68 1 0.7 32 -20 -24 0 0 0
203 68 2 -0.35 30.870439940373256 -20.251536599124904 -24.08014618516627 0 0 0
204 68 2 -0.35 33.12956005962674 -19.748463400875096 -23.91985381483373 0 0 0
205 69 1 0.7 -32 -16 -24 0 0 0
206 69 2 -0.35 -31.67203333064477 -16.29857746231759 -22.928137432882355 0 0 0
207 69 2 -0.35 -32.327966669355234 -15.701422537682411 -25.071862567117645 0 0 0
208 70 1 0.7 -28 -16 -24 0 0 0
209 70 2 -0.35 -28.87204336421532 -16.28750182142619 -24.7088604048786 0 0 0
210 70 2 -0.35 -27.12795663578468 -15.712498178573812 -23.2911395951214 0 0 0
211 71 1 0.7 -24 -16 -24 0 0 0
212 71 2 -0.35 -24.188636719364002 -16.732633303007557 -24.879354667601092 0 0 0
213 71 2 -0.35 -23.811363280635998 -15.267366696992445 -23.120645332398908 0 0 0
214 72 1 0.7 -20 -16 -24 0 0 0
215 72 2 -0.35 -19.033729992222998 -15.662412115617173 -24.54585409441403 0 0 0
216 72 2 -0.35 -20.966270007777002 -16.337587884382827 -23.45414590558597 0 0 0
217 73 1 0.7 -16 -16 -24 0 0 0
218 73 2 -0.35 -16.431576130848473 -15.001027181725371 -23.598259596716602 0 0 0
219 73 2 -0.35 -15.568423869151527 -16.998972818274627 -24.401740403283398 0 0 0
220 74 1 0.7 -12 -16 -24 0 0 0
221 74 2 -0.35 -12.6138536203019 -16.924281992015782 -23.66164141494919 0 0 0
222 74 2 -0.35 -11.3861463796981 -15.075718007984216 -24.33835858505081 0 0 0
223 75 1 0.7 -8 -16 -24 0 0 0
224 75 2 -0.35 -8.778228439826584 -16.256500433643698 -23.17892264494405 0 0 0
225 75 2 -0.35 -7.221771560173416 -15.743499566356302 -24.82107735505595 0 0 0
226 76 1 0.7 -4 -16 -24 0 0 0
227 76 2 -0.35 -4.864454282178389 -15.60367668738294 -23.335736026944343 0 0 0
228 76 2 -0.35 -3.135545717821611 -16.39632331261706 -24.664263973055657 0 0 0
229 77 1 0.7 0 -16 -24 0 0 0
230 77 2 -0.35 -0.9679086180595825 -16.39373041430966 -24.503715463266253 0 0 0
231 77 2 -0.35 0.9679086180595825 -15.606269585690344 -23.496284536733747 0 0 0
232 78 1 0.7 4 -16 -24 0 0 0
233 78 2 -0.35 2.889399481460124 -16.16942504775463 -23.71110271477167 0 0 0
234 78 2 -0.35 5.110600518539876 -15.830574952245373 -24.28889728522833 0 0 0
235 79 1 0.7 8 -16 -24 0 0 0
236 79 2 -0.35 6.869713770616578 -15.752937078774304 -24.083743373598345 0 0 0
237 79 2 -0.35 9.130286229383422 -16.247062921225698 -23.916256626401655 0 0 0
238 80 1 0.7 12 -16 -24 0 0 0
239 80 2 -0.35 13.039669774716318 -16.188710699863634 -24.478617834287753 0 0 0
240 80 2 -0.35 10.960330225283682 -15.811289300136364 -23.521382165712247 0 0 0
241 81 1 0.7 16 -16 -24 0 0 0
242 81 2 -0.35 16.792233732504666 -15.458953974278586 -24.652100384245237 0 0 0
243 81 2 -0.35 15.207766267495334 -16.541046025721414 -23.347899615754763 0 0 0
244 82 1 0.7 20 -16 -24 0 0 0
245 82 2 -0.35 19.16454388791644 -16.722219688962074 -23.645018584067067 0 0 0
246 82 2 -0.35 20.83545611208356 -15.277780311037926 -24.354981415932933 0 0 0
247 83 1 0.7 24 -16 -24 0 0 0
248 83 2 -0.35 22.94793744484073 -16.376422563297073 -24.311561284296694 0 0 0
249 83 2 -0.35 25.05206255515927 -15.623577436702929 -23.688438715703306 0 0 0
250 84 1 0.7 28 -16 -24 0 0 0
251 84 2 -0.35 28.689206875682004 -15.220654781309847 -24.513044747188246 0 0 0
252 84 2 -0.35 27.310793124317996 -16.779345218690153 -23.486955252811754 0 0 0
253 85 1 0.7 32 -16 -24 0 0 0
254 85 2 -0.35 30.842526313933988 -15.923658835399042 -23.99483350678645 0 0 0
255 85 2 -0.35 33.15747368606601 -16.076341164600958 -24.00516649321355 0 0 0
256 86 1 0.7 -32 -12 -24 0 0 0
257 86 2 -0.35 -33.14656622187615 -12.167366284784949 -24.054538294527248 0 0 0
258 86 2 -0.35 -30.853433778123854 -11.832633715215051 -23.945461705472752 0 0 0
259 87 1 0.7 -28 -12 -24 0 0 0
260 87 2 -0.35 -28.57821960497507 -12.957693396967382 -23.693266490536903 0 0 0
261 87 2 -0.35 -27.42178039502493 -11.042306603032618 -24.306733509463097 0 0 0
262 88 1 0.7 -24 -12 -24 0 0 0
263 88 2 -0.35 -24.502626289456487 -11.286053542037768 -23.236293729035573 0 0 0
264 88 2 -0.35 -23.497373710543513 -12.713946457962232 -24.763706270964427 0 0 0
265 89 1 0.7 -20 -12 -24 0 0 0
266 89 2 -0.35 -19.426182425020706 -11.511797984491203 -23.117961348523757 0 0 0
267 89 2 -0.35 -20.573817574979294 -12.488202015508797 -24.882038651476243 0 0 0
268 90 1 0.7 -16 -12 -24 0 0 0
269 90 2 -0.35 -15.654422616914701 -11.017110266400808 -24.510003964577947 0 0 0
270 90 2 -0.35 -16.3455773830853 -12.982889733599192 -23.489996035422053 0 0 0
271 91 1 0.7 -12 -12 -24 0 0 0
272 91 2 -0.35 -12.159512388564407 -13.112281495593962 -24.288072338925033 0 0 0
273 91 2 -0.35 -11.840487611435593 -10.887718504406038 -23.711927661074967 0 0 0
274 92 1 0.7 -8 -12 -24 0 0 0
275 92 2 -0.35 -6.850233035336737 -12.153619871004262 -23.993928574989177 0 0 0
276 92 2 -0.35 -9.149766964663263 -11.846380128995738 -24.006071425010823 0 0 0
277 93 1 0.7 -4 -12 -24 0 0 0
278 93 2 -0.35 -4.977027105908804 -11.820317863667201 -23.401057294724822 0 0 0
279 93 2 -0.35 -3.0229728940911955 -12.179682136332799 -24.598942705275178 0 0 0
280 94 1 0.7 0 -12 -24 0 0 0
281 94 2 -0.35 0.8114879333747314 -12.464527696459044 -23.31348608665981 0 0 0
282 94 2 -0.35 -0.8114879333747314 -11.535472303540956 -24.68651391334019 0 0 0
283 95 1 0.7 4 -12 -24 0 0 0
284 95 2 -0.35 2.954850156625063 -12.362837612143691 -23.651272782669306 0 0 0
285 95 2 -0.35 5.045149843374936 -11.637162387856309 -24.348727217330694 0 0 0
286 96 1 0.7 8 -12 -24 0 0 0
287 96 2 -0.35 7.602958905887201 -13.069533059645867 -23.790101443763277 0 0 0
288 96 2 -0.35 8.397041094112799 -10.930466940354133 -24.209898556236723 0 0 0
289 97 1 0.7 12 -12 -24 0 0 0
290 97 2 -0.35 11.003215010415909 -12.417823026808636 -23.578759447811212 0 0 0
291 97 2 -0.35 12.996784989584091 -11.582176973191364 -24.421240552188788 0 0 0
292 98 1 0.7 16 -12 -24 0 0 0
293 98 2 -0.35 15.318440682594009 -12.34007154081153 -24.874887560768325 0 0 0
294 98 2 -0.35 16.68155931740599 -11.65992845918847 -23.125112439231675 0 0 0
295 99 1 0.7 20 -12 -24 0 0 0
296 99 2 -0.35 18.863112950573218 -12.22385198606704 -24.05457220152701 0 0 0
297 99 2 -0.35 21.136887049426782 -11.77614801393296 -23.94542779847299 0 0 0
298 100 1 0.7 24 -12 -24 0 0 0
299 100 2 -0.35 22.91526512375914 -12.347838233425195 -24.218995003674433 0 0 0
300 100 2 -0.35 25.08473487624086 -11.652161766574805 -23.781004996325567 0 0 0
301 101 1 0.7 28 -12 -24 0 0 0
302 101 2 -0.35 27.701996553465918 -13.12086539227398 -24.021324123810967 0 0 0
303 101 2 -0.35 28.298003446534082 -10.87913460772602 -23.978675876189033 0 0 0
304 102 1 0.7 32 -12 -24 0 0 0
305 102 2 -0.35 30.946807060391173 -12.093057160708913 -23.522794596846484 0 0 0
306 102 2 -0.35 33.05319293960883 -11.906942839291087 -24.477205403153516 0 0 0
307 103 1 0.7 -32 -8 -24 0 0 0
308 103 2 -0.35 -30.85927553630944 -7.911648273262913 -24.191158756850054 0 0 0
309 103 2 -0.35 -33.14072446369056 -8.088351726737088 -23.808841243149946 0 0 0
310 104 1 0.7 -28 -8 -24 0 0 0
311 104 2 -0.35 -28.391006248658915 -7.172020610013771 -23.287845351578948 0 0 0
312 104 2 -0.35 -27.608993751341085 -8.827979389986229 -24.712154648421052 0 0 0
313 105 1 0.7 -24 -8 -24 0 0 0
314 105 2 -0.35 -24.733090479524158 -8.859702290785568 -23.737149624217345 0 0 0
315 105 2 -0.35 -23.266909520475842 -7.140297709214431 -24.262850375782655 0 0 0
316 106 1 0.7 -20 -8 -24 0 0 0
317 106 2 -0.35 -20.436091354411378 -6.929362250419307 -23.904296605178086 0 0 0
318 106 2 -0.35 -19.563908645588622 -9.070637749580694 -24.095703394821914 0 0 0
319 107 1 0.7 -16 -8 -24 0 0 0
320 107 2 -0.35 -14.878613675248111 -8.227123486271365 -24.19106970624197 0 0 0
321 107 2 -0.35 -17.12138632475189 -7.772876513728634 -23.80893029375803 0 0 0
322 108 1 0.7 -12 -8 -24 0 0 0
323 108 2 -0.35 -12.41936186593643 -8.97039839338104 -24.477558984337865 0 0 0
324 108 2 -0.35 -11.58063813406357 -7.029601606618961 -23.522441015662135 0 0 0
325 109 1 0.7 -8 -8 -24 0 0 0
326 109 2 -0.35 -7.819988022670311 -8.52675667509655 -22.982295183631773 0 0 0
327 109 2 -0.35 -8.180011977329688 -7.473243324903451 -25.017704816368227 0 0 0
328 110 1 0.7 -4 -8 -24 0 0 0
329 110 2 -0.35 -5.142126710092304 -7.838943156860422 -24.123317765839488 0 0 0
330 110 2 -0.35 -2.8578732899076957 -8.161056843139578 -23.876682234160512 0 0 0
331 111 1 0.7 0 -8 -24 0 0 0
332 111 2 -0.35 -0.885311999539166 -8.721328885123564 -23.79626658850753 0 0 0
333 111 2 -0.35 0.885311999539166 -7.2786711148764365 -24.20373341149247 0 0 0
334 112 1 0.7 4 -8 -24 0 0 0
335 112 2 -0.35 2.856684696264562 -8.083184243704611 -24.17751196535342 0 0 0
336 112 2 -0.35 5.143315303735438 -7.91681575629539 -23.82248803464658 0 0 0
337 113 1 0.7 8 -8 -24 0 0 0
338 113 2 -0.35 8.52682065970159 -8.898407252628184 -23.48919240321168 0 0 0
339 113 2 -0.35 7.473179340298409 -7.101592747371816 -24.51080759678832 0 0 0
340 114 1 0.7 12 -8 -24 0 0 0
341 114 2 -0.35 12.3319385465637 -9.10417280748006 -23.872645327817235 0 0 0
342 114 2 -0.35 11.6680614534363 -6.89582719251994 -24.127354672182765 0 0 0
343 115 1 0.7 16 -8 -24 0 0 0
344 115 2 -0.35 15.287409398559094 -8.26092063581777 -23.122654539794876 0 0 0
345 115 2 -0.35 16.712590601440905 -7.73907936418223 -24.877345460205124 0 0 0
346 116 1 0.7 20 -8 -24 0 0 0
347 116 2 -0.35 19.340278201765592 -8.591385202761156 -23.251247243150647 0 0 0
348 116 2 -0.35 20.659721798234408 -7.408614797238845 -24.748752756849353 0 0 0
349 117 1 0.7 24 -8 -24 0 0 0
350 117 2 -0.35 23.44005794407316 -8.144746696365804 -22.99445870900514 0 0 0
351 117 2 -0.35 24.55994205592684 -7.855253303634196 -25.00554129099486 0 0 0
352 118 1 0.7 28 -8 -24 0 0 0
353 118 2 -0.35 27.379012999573508 -8.185078719141632 -24.962143966889673 0 0 0
354 118 2 -0.35 28.620987000426492 -7.814921280858367 -23.037856033110327 0 0 0
355 119 1 0.7 32 -8 -24 0 0 0
356 119 2 -0.35 31.127574167630335 -7.884365626436893 -23.24428718505985 0 0 0
357 119 2 -0.35 32.872425832369665 -8.115634373563106 -24.75571281494015 0 0 0
358 120 1 0.7 -32 -4 -24 0 0 0
359 120 2 -0.35 -32.143329030567266 -3.613531312122481 -25.08429642731445 0 0 0
360 120 2 -0.35 -31.856670969432734 -4.386468687877519 -22.91570357268555 0 0 0
361 121 1 0.7 -28 -4 -24 0 0 0
362 121 2 -0.35 -28.367633036276892 -4.572407327804362 -23.06042786242157 0 0 0
363 121 2 -0.35 -27.632366963723108 -3.4275926721956376 -24.93957213757843 0 0 0
364 122 1 0.7 -24 -4 -24 0 0 0
365 122 2 -0.35 -23.739405920392123 -4.099417124378711 -22.874030657143102 0 0 0
366 122 2 -0.35 -24.260594079607877 -3.9005828756212897 -25.125969342856898 0 0 0
367 123 1 0.7 -20 -4 -24 0 0 0
368 123 2 -0.35 -19.892126205670404 -2.858937501049014 -24.178716585645166 0 0 0
369 123 2 -0.35 -20.107873794329596 -5.141062498950986 -23.821283414354834 0 0 0
370 124 1 0.7 -16 -4 -24 0 0 0
371 124 2 -0.35 -15.586558643705034 -3.807645511677751 -25.066614267543457 0 0 0
372 124 2 -0.35 -16.413441356294964 -4.192354488322249 -22.933385732456543 0 0 0
373 125 1 0.7 -12 -4 -24 0 0 0
374 125 2 -0.35 -12.698113262742954 -4.720473146629235 -24.582371288241923 0 0 0
375 125 2 -0.35 -11.301886737257046 -3.279526853370765 -23.417628711758077 0 0 0
376 126 1 0.7 -8 -4 -24 0 0 0
377 126 2 -0.35 -8.255747506140416 -5.130847927073127 -23.962903114182325 0 0 0
378 126 2 -0.35 -7.744252493859584 -2.869152072926873 -24.037096885817675 0 0 0
379 127 1 0.7 -4 -4 -24 0 0 0
380 127 2 -0.35 -3.7457819206012783 -3.8353472451543227 -25.11976008074433 0 0 0
381 127 2 -0.35 -4.254218079398721 -4.164652754845677 -22.88023991925567 0 0 0
382 128 1 0.7 0 -4 -24 0 0 0
383 128 2 -0.35 0.08926463771368068 -3.6612829639407316 -22.894150736340134 0 0 0
384 128 2 -0.35 -0.08926463771368068 -4.338717036059268 -25.105849263659866 0 0 0
385 129 1 0.7 4 -4 -24 0 0 0
386 129 2 -0.35 2.8599345055164265 -4.106263417929316 -23.814100149817424 0 0 0
387 129 2 -0.35 5.140065494483574 -3.8937365820706837 -24.185899850182576 0 0 0
388 130 1 0.7 8 -4 -24 0 0 0
389 130 2 -0.35 6.921384130836492 -3.82625505204373 -24.38987241483378 0 0 0
390 130 2 -0.35 9.078615869163508 -4.17374494795627 -23.61012758516622 0 0 0
391 131 1 0.7 12 -4 -24 0 0 0
392 131 2 -0.35 11.87612687507705 -3.728328764489502 -25.12091488914994 0 0 0
393 131 2 -0.35 12.12387312492295 -4.271671235510499 -22.87908511085006 0 0 0
394 132 1 0.7 16 -4 -24 0 0 0
395 132 2 -0.35 16.257786808628246 -3.9100629605345 -22.87258823394935 0 0 0
396 132 2 -0.35 15.742213191371755 -4.0899370394655 -25.12741176605065 0 0 0
397 133 1 0.7 20 -4 -24 0 0 0
398 133 2 -0.35 19.23055540681893 -4.485395852760193 -24.719684572675853 0 0 0
399 133 2 -0.35 20.76944459318107 -3.5146041472398073 -23.280315427324147 0 0 0
400 134 1 0.7 24 -4 -24 0 0 0
401 134 2 -0.35 22.931090593419583 -3.7380790644027786 -24.366647111020633 0 0 0
402 134 2 -0.35 25.068909406580417 -4.261920935597222 -23.633352888979367 0 0 0
403 135 1 0.7 28 -4 -24 0 0 0
404 135 2 -0.35 27.658158700866238 -2.8933072092100507 -24.06305230384448 0 0 0
405 135 2 -0.35 28.341841299133762 -5.10669279078995 -23.93694769615552 0 0 0
406 136 1 0.7 32 -4 -24 0 0 0
407 136 2 -0.35 32.20547211581048 -2.864436756024535 -23.882197926349818 0 0 0
408 136 2 -0.35 31.79452788418952 -5.135563243975465 -24.117802073650182 0 0 0
409 137 1 0.7 -32 0 -24 0 0 0
410 137 2 -0.35 -31.744367696148778 -0.8662865860977288 -23.2721266071803 0 0 0
411 137 2 -0.35 -32.25563230385122 0.8662865860977288 -24.7278733928197 0 0 0
412 138 1 0.7 -28 0 -24 0 0 0
413 138 2 -0.35 -28.48395554880053 -0.8950136746058281 -23.442920518189954 0 0 0
414 138 2 -0.35 -27.51604445119947 0.8950136746058281 -24.557079481810046 0 0 0
415 139 1 0.7 -24 0 -24 0 0 0
416 139 2 -0.35 -24.67904092603408 -0.9199235180718006 -23.804438905532876 0 0 0
417 139 2 -0.35 -23.32095907396592 0.9199235180718006 -24.195561094467124 0 0 0
418 140 1 0.7 -20 0 -24 0 0 0
419 140 2 -0.35 -19.17517441769846 -0.8132111697778128 -23.937148173220432 0 0 0
420 140 2 -0.35 -20.82482558230154 0.8132111697778128 -24.062851826779568 0 0 0
421 141 1 0.7 -16 0 -24 0 0 0
422 141 2 -0.35 -17.159975590367903 0.003440517893042817 -23.993307273555395 0 0 0
423 141 2 -0.35 -14.840024409632097 -0.003440517893042817 -24.006692726444605 0 0 0
424 142 1 0.7 -12 0 -24 0 0 0
425 142 2 -0.35 -12.400616399301764 0.9934934885459366 -24.445058635268786 0 0 0
426 142 2 -0.35 -11.599383600698236 -0.9934934885459366 -23.554941364731214 0 0 0
427 143 1 0.7 -8 0 -24 0 0 0
428 143 2 -0.35 -9.12803931126976 0.22732476615350417 -23.85353921028718 0 0 0
429 143 2 -0.35 -6.871960688730241 -0.22732476615350417 -24.14646078971282 0 0 0
430 144 1 0.7 -4 0 -24 0 0 0
431 144 2 -0.35 -4.646960343522329 -0.9029352052637051 -23.66570921489688 0 0 0
432 144 2 -0.35 -3.353039656477671 0.9029352052637051 -24.33429078510312 0 0 0
433 145 1 0.7 0 0 -24 0 0 0
434 145 2 -0.35 -0.9639831970165528 0.45902332594271483 -24.453468832567612 0 0 0
435 145 2 -0.35 0.9639831970165528 -0.45902332594271483 -23.546531167432388 0 0 0
436 146 1 0.7 4 0 -24 0 0 0
437 146 2 -0.35 2.8749791009648575 0.05843501330723025 -23.723389577286135 0 0 0
438 146 2 -0.35 5.1250208990351425 -0.05843501330723025 -24.276610422713865 0 0 0
439 147 1 0.7 8 0 -24 0 0 0
440 147 2 -0.35 6.933712868761318 0.4527368728941816 -24.060506839917306 0 0 0
441 147 2 -0.35 9.066287131238683 -0.4527368728941816 -23.939493160082694 0 0 0
442 148 1 0.7 12 0 -24 0 0 0
443 148 2 -0.35 10.87154929149889 0.08833942666434472 -24.253761983322875 0 0 0
444 148 2 -0.35 13.12845070850111 -0.08833942666434472 -23.746238016677125 0 0 0
445 149 1 0.7 16 0 -24 0 0 0
446 149 2 -0.35 15.536156690067157 -1.0470493980728566 -23.81523814834817 0 0 0
447 149 2 -0.35 16.46384330993284 1.0470493980728566 -24.18476185165183 0 0 0
448 150 1 0.7 20 0 -24 0 0 0
449 150 2 -0.35 19.388650399431317 -0.9291667849403002 -23.67060547720368 0 0 0
450 150 2 -0.35 20.611349600568683 0.9291667849403002 -24.32939452279632 0 0 0
451 151 1 0.7 24 0 -24 0 0 0
452 151 2 -0.35 23.37037642893657 0.9436573880623259 -23.75775035043013 0 0 0
453 151 2 -0.35 24.62962357106343 -0.9436573880623259 -24.24224964956987 0 0 0
454 152 1 0.7 28 0 -24 0 0 0
455 152 2 -0.35 27.015965995580654 0.48228639870627404 -24.380364177820887 0 0 0
456 152 2 -0.35 28.984034004419346 -0.48228639870627404 -23.619635822179113 0 0 0
457 153 1 0.7 32 0 -24 0 0 0
458 153 2 -0.35 31.415036782269404 -0.9024554624418573 -23.565267700520057 0 0 0
459 153 2 -0.35 32.584963217730596 0.9024554624418573 -24.434732299479943 0 0 0
460 154 1 0.7 -32 4 -24 0 0 0
461 154 2 -0.35 -31.028225700925375 4.325765406686074 -23.456739830776563 0 0 0
462 154 2 -0.35 -32.971774299074625 3.674234593313926 -24.543260169223437 0 0 0
463 155 1 0.7 -28 4 -24 0 0 0
464 155 2 -0.35 -27.905923673384457 3.9498552927095547 -22.844909028214104 0 0 0
465 155 2 -0.35 -28.094076326615543 4.050144707290445 -25.155090971785896 0 0 0
466 156 1 0.7 -24 4 -24 0 0 0
467 156 2 -0.35 -23.37621969942639 4.389839748152254 -24.896952121005846 0 0 0
468 156 2 -0.35 -24.62378030057361 3.6101602518477454 -23.103047878994154 0 0 0
469 157 1 0.7 -20 4 -24 0 0 0
470 157 2 -0.35 -19.23869820246808 3.4105739223038594 -23.353009681674905 0 0 0
471 157 2 -0.35 -20.76130179753192 4.589426077696141 -24.646990318325095 0 0 0