LAMMPS data file via write_data, version 29 Sep 2021, timestep = 50000

7751 atoms
6 atom types
2754 bonds
1 bond types
1377 angles
1 angle types

-17.849999999999998 17.849999999999998 xlo xhi
-17.849999999999998 17.849999999999998 ylo yhi
-46.41 46.41 zlo zhi

Masses

1 15.9994
2 1.008
3 28.99
4 35.453
5 12.011
6 12.011

Pair Coeffs # lj/cut/tip4p/long

1 0.185199 3.1589
2 0 0
3 0.0469 2.4299
4 0.15 4.0447
5 0.07 3.55
6 0.07 3.55

Bond Coeffs # harmonic

1 0 0.9572

Angle Coeffs # harmonic

1 0 104.52

Atoms # full

1801 0 6 0 -17.849999999999998 -17.849999999999998 -25.774240526639947 0 0 0
1804 0 6 0 -16.064999999999998 -16.064999999999998 -25.774240526639947 0 0 0
1805 0 6 0 -16.9575 -16.9575 -24.88174052663997 0 0 0
1808 0 6 0 -15.1725 -15.1725 -24.88174052663997 0 0 0
1809 0 6 0 -14.28 -17.849999999999998 -25.774240526639947 0 0 0
1812 0 6 0 -12.495 -16.064999999999998 -25.774240526639947 0 0 0
1813 0 6 0 -13.3875 -16.9575 -24.88174052663997 0 0 0
1816 0 6 0 -11.6025 -15.1725 -24.88174052663997 0 0 0
1817 0 6 0 -10.709999999999999 -17.849999999999998 -25.774240526639947 0 0 0
1821 0 6 0 -9.817499999999999 -16.9575 -24.88174052663997 0 0 0
1881 0 6 0 -17.849999999999998 -14.28 -25.774240526639947 0 0 0
1884 0 6 0 -16.064999999999998 -12.495 -25.774240526639947 0 0 0
1885 0 6 0 -16.9575 -13.3875 -24.88174052663997 0 0 0
1888 0 6 0 -15.1725 -11.6025 -24.88174052663997 0 0 0
1889 0 6 0 -14.28 -14.28 -25.774240526639947 0 0 0
1892 0 6 0 -12.495 -12.495 -25.774240526639947 0 0 0
1893 0 6 0 -13.3875 -13.3875 -24.88174052663997 0 0 0
1896 0 6 0 -11.6025 -11.6025 -24.88174052663997 0 0 0
1897 0 6 0 -10.709999999999999 -14.28 -25.774240526639947 0 0 0
1901 0 6 0 -9.817499999999999 -13.3875 -24.88174052663997 0 0 0
1961 0 6 0 -17.849999999999998 -10.709999999999999 -25.774240526639947 0 0 0
1965 0 6 0 -16.9575 -9.817499999999999 -24.88174052663997 0 0 0
1969 0 6 0 -14.28 -10.709999999999999 -25.774240526639947 0 0 0
1973 0 6 0 -13.3875 -9.817499999999999 -24.88174052663997 0 0 0
1977 0 6 0 -10.709999999999999 -10.709999999999999 -25.774240526639947 0 0 0
1981 0 6 0 -9.817499999999999 -9.817499999999999 -24.88174052663997 0 0 0
1802 0 6 0 -17.849999999999998 -16.064999999999998 -23.989240526640064 0 0 0
1803 0 6 0 -16.064999999999998 -17.849999999999998 -23.989240526640064 0 0 0
1810 0 6 0 -14.28 -16.064999999999998 -23.989240526640064 0 0 0
1811 0 6 0 -12.495 -17.849999999999998 -23.989240526640064 0 0 0
1818 0 6 0 -10.709999999999999 -16.064999999999998 -23.989240526640064 0 0 0
1882 0 6 0 -17.849999999999998 -12.495 -23.989240526640064 0 0 0
1883 0 6 0 -16.064999999999998 -14.28 -23.989240526640064 0 0 0
1890 0 6 0 -14.28 -12.495 -23.989240526640064 0 0 0
1891 0 6 0 -12.495 -14.28 -23.989240526640064 0 0 0
1898 0 6 0 -10.709999999999999 -12.495 -23.989240526640064 0 0 0
1963 0 6 0 -16.064999999999998 -10.709999999999999 -23.989240526640064 0 0 0
1971 0 6 0 -12.495 -10.709999999999999 -23.989240526640064 0 0 0
1820 0 6 0 -8.924999999999999 -16.064999999999998 -25.774240526639947 0 0 0
1824 0 6 0 -8.032499999999999 -15.1725 -24.88174052663997 0 0 0
1825 0 6 0 -7.14 -17.849999999999998 -25.774240526639947 0 0 0
1828 0 6 0 -5.3549999999999995 -16.064999999999998 -25.774240526639947 0 0 0
1829 0 6 0 -6.2475 -16.9575 -24.88174052663997 0 0 0
1832 0 6 0 -4.4624999999999995 -15.1725 -24.88174052663997 0 0 0
1833 0 6 0 -3.57 -17.849999999999998 -25.774240526639947 0 0 0
1836 0 6 0 -1.785 -16.064999999999998 -25.774240526639947 0 0 0
1837 0 6 0 -2.6774999999999998 -16.9575 -24.88174052663997 0 0 0
1840 0 6 0 -0.8925 -15.1725 -24.88174052663997 0 0 0
1900 0 6 0 -8.924999999999999 -12.495 -25.774240526639947 0 0 0
1904 0 6 0 -8.032499999999999 -11.6025 -24.88174052663997 0 0 0
1905 0 6 0 -7.14 -14.28 -25.774240526639947 0 0 0
1908 0 6 0 -5.3549999999999995 -12.495 -25.774240526639947 0 0 0
1909 0 6 0 -6.2475 -13.3875 -24.88174052663997 0 0 0
1912 0 6 0 -4.4624999999999995 -11.6025 -24.88174052663997 0 0 0
1913 0 6 0 -3.57 -14.28 -25.774240526639947 0 0 0
1916 0 6 0 -1.785 -12.495 -25.774240526639947 0 0 0
1917 0 6 0 -2.6774999999999998 -13.3875 -24.88174052663997 0 0 0
1920 0 6 0 -0.8925 -11.6025 -24.88174052663997 0 0 0
1985 0 6 0 -7.14 -10.709999999999999 -25.774240526639947 0 0 0
1989 0 6 0 -6.2475 -9.817499999999999 -24.88174052663997 0 0 0
1993 0 6 0 -3.57 -10.709999999999999 -25.774240526639947 0 0 0
1997 0 6 0 -2.6774999999999998 -9.817499999999999 -24.88174052663997 0 0 0
1819 0 6 0 -8.924999999999999 -17.849999999999998 -23.989240526640064 0 0 0
1826 0 6 0 -7.14 -16.064999999999998 -23.989240526640064 0 0 0
1827 0 6 0 -5.3549999999999995 -17.849999999999998 -23.989240526640064 0 0 0
1834 0 6 0 -3.57 -16.064999999999998 -23.989240526640064 0 0 0
1835 0 6 0 -1.785 -17.849999999999998 -23.989240526640064 0 0 0
1899 0 6 0 -8.924999999999999 -14.28 -23.989240526640064 0 0 0
1906 0 6 0 -7.14 -12.495 -23.989240526640064 0 0 0
1907 0 6 0 -5.3549999999999995 -14.28 -23.989240526640064 0 0 0
1914 0 6 0 -3.57 -12.495 -23.989240526640064 0 0 0
1915 0 6 0 -1.785 -14.28 -23.989240526640064 0 0 0
1979 0 6 0 -8.924999999999999 -10.709999999999999 -23.989240526640064 0 0 0
1987 0 6 0 -5.3549999999999995 -10.709999999999999 -23.989240526640064 0 0 0
1995 0 6 0 -1.785 -10.709999999999999 -23.989240526640064 0 0 0
1841 0 6 0 0 -17.849999999999998 -25.774240526639947 0 0 0
1844 0 6 0 1.785 -16.064999999999998 -25.774240526639947 0 0 0
1845 0 6 0 0.8925 -16.9575 -24.88174052663997 0 0 0
1848 0 6 0 2.6774999999999998 -15.1725 -24.88174052663997 0 0 0
1849 0 6 0 3.57 -17.849999999999998 -25.774240526639947 0 0 0
1852 0 6 0 5.3549999999999995 -16.064999999999998 -25.774240526639947 0 0 0
1853 0 6 0 4.4624999999999995 -16.9575 -24.88174052663997 0 0 0
1856 0 6 0 6.2475 -15.1725 -24.88174052663997 0 0 0
1857 0 6 0 7.14 -17.849999999999998 -25.774240526639947 0 0 0
1861 0 6 0 8.032499999999999 -16.9575 -24.88174052663997 0 0 0
1921 0 6 0 0 -14.28 -25.774240526639947 0 0 0
1924 0 6 0 1.785 -12.495 -25.774240526639947 0 0 0
1925 0 6 0 0.8925 -13.3875 -24.88174052663997 0 0 0
1928 0 6 0 2.6774999999999998 -11.6025 -24.88174052663997 0 0 0
1929 0 6 0 3.57 -14.28 -25.774240526639947 0 0 0
1932 0 6 0 5.3549999999999995 -12.495 -25.774240526639947 0 0 0
1933 0 6 0 4.4624999999999995 -13.3875 -24.88174052663997 0 0 0
1936 0 6 0 6.2475 -11.6025 -24.88174052663997 0 0 0
1937 0 6 0 7.14 -14.28 -25.774240526639947 0 0 0
1941 0 6 0 8.032499999999999 -13.3875 -24.88174052663997 0 0 0
2001 0 6 0 0 -10.709999999999999 -25.774240526639947 0 0 0
2005 0 6 0 0.8925 -9.817499999999999 -24.88174052663997 0 0 0
2009 0 6 0 3.57 -10.709999999999999 -25.774240526639947 0 0 0
2013 0 6 0 4.4624999999999995 -9.817499999999999 -24.88174052663997 0 0 0
2017 0 6 0 7.14 -10.709999999999999 -25.774240526639947 0 0 0
2021 0 6 0 8.032499999999999 -9.817499999999999 -24.88174052663997 0 0 0
1842 0 6 0 0 -16.064999999999998 -23.989240526640064 0 0 0
1843 0 6 0 1.785 -17.849999999999998 -23.989240526640064 0 0 0
1850 0 6 0 3.57 -16.064999999999998 -23.989240526640064 0 0 0
1851 0 6 0 5.3549999999999995 -17.849999999999998 -23.989240526640064 0 0 0
1858 0 6 0 7.14 -16.064999999999998 -23.989240526640064 0 0 0
1922 0 6 0 0 -12.495 -23.989240526640064 0 0 0
1923 0 6 0 1.785 -14.28 -23.989240526640064 0 0 0
1930 0 6 0 3.57 -12.495 -23.989240526640064 0 0 0
1931 0 6 0 5.3549999999999995 -14.28 -23.989240526640064 0 0 0
1938 0 6 0 7.14 -12.495 -23.989240526640064 0 0 0
2003 0 6 0 1.785 -10.709999999999999 -23.989240526640064 0 0 0
2011 0 6 0 5.3549999999999995 -10.709999999999999 -23.989240526640064 0 0 0
1860 0 6 0 8.924999999999999 -16.064999999999998 -25.774240526639947 0 0 0
1864 0 6 0 9.817499999999999 -15.1725 -24.88174052663997 0 0 0
1865 0 6 0 10.709999999999999 -17.849999999999998 -25.774240526639947 0 0 0
1868 0 6 0 12.495 -16.064999999999998 -25.774240526639947 0 0 0
1869 0 6 0 11.6025 -16.9575 -24.88174052663997 0 0 0
1872 0 6 0 13.3875 -15.1725 -24.88174052663997 0 0 0
1873 0 6 0 14.28 -17.849999999999998 -25.774240526639947 0 0 0
1876 0 6 0 16.064999999999998 -16.064999999999998 -25.774240526639947 0 0 0
1877 0 6 0 15.1725 -16.9575 -24.88174052663997 0 0 0
1880 0 6 0 16.9575 -15.1725 -24.88174052663997 0 0 0
1940 0 6 0 8.924999999999999 -12.495 -25.774240526639947 0 0 0
1944 0 6 0 9.817499999999999 -11.6025 -24.88174052663997 0 0 0
1945 0 6 0 10.709999999999999 -14.28 -25.774240526639947 0 0 0
1948 0 6 0 12.495 -12.495 -25.774240526639947 0 0 0
1949 0 6 0 11.6025 -13.3875 -24.88174052663997 0 0 0
1952 0 6 0 13.3875 -11.6025 -24.88174052663997 0 0 0
1953 0 6 0 14.28 -14.28 -25.774240526639947 0 0 0
1956 0 6 0 16.064999999999998 -12.495 -25.774240526639947 0 0 0
1957 0 6 0 15.1725 -13.3875 -24.88174052663997 0 0 0
1960 0 6 0 16.9575 -11.6025 -24.88174052663997 0 0 0
2025 0 6 0 10.709999999999999 -10.709999999999999 -25.774240526639947 0 0 0
2029 0 6 0 11.6025 -9.817499999999999 -24.88174052663997 0 0 0
2033 0 6 0 14.28 -10.709999999999999 -25.774240526639947 0 0 0
2037 0 6 0 15.1725 -9.817499999999999 -24.88174052663997 0 0 0
1859 0 6 0 8.924999999999999 -17.849999999999998 -23.989240526640064 0 0 0
1866 0 6 0 10.709999999999999 -16.064999999999998 -23.989240526640064 0 0 0
1867 0 6 0 12.495 -17.849999999999998 -23.989240526640064 0 0 0
1874 0 6 0 14.28 -16.064999999999998 -23.989240526640064 0 0 0
1875 0 6 0 16.064999999999998 -17.849999999999998 -23.989240526640064 0 0 0
1939 0 6 0 8.924999999999999 -14.28 -23.989240526640064 0 0 0
1946 0 6 0 10.709999999999999 -12.495 -23.989240526640064 0 0 0
1947 0 6 0 12.495 -14.28 -23.989240526640064 0 0 0
1954 0 6 0 14.28 -12.495 -23.989240526640064 0 0 0
1955 0 6 0 16.064999999999998 -14.28 -23.989240526640064 0 0 0
2019 0 6 0 8.924999999999999 -10.709999999999999 -23.989240526640064 0 0 0
2027 0 6 0 12.495 -10.709999999999999 -23.989240526640064 0 0 0
2035 0 6 0 16.064999999999998 -10.709999999999999 -23.989240526640064 0 0 0
1964 0 6 0 -16.064999999999998 -8.924999999999999 -25.774240526639947 0 0 0
1968 0 6 0 -15.1725 -8.032499999999999 -24.88174052663997 0 0 0
1972 0 6 0 -12.495 -8.924999999999999 -25.774240526639947 0 0 0
1976 0 6 0 -11.6025 -8.032499999999999 -24.88174052663997 0 0 0
2041 0 6 0 -17.849999999999998 -7.14 -25.774240526639947 0 0 0
2044 0 6 0 -16.064999999999998 -5.3549999999999995 -25.774240526639947 0 0 0
2045 0 6 0 -16.9575 -6.2475 -24.88174052663997 0 0 0
2048 0 6 0 -15.1725 -4.4624999999999995 -24.88174052663997 0 0 0
2049 0 6 0 -14.28 -7.14 -25.774240526639947 0 0 0
2052 0 6 0 -12.495 -5.3549999999999995 -25.774240526639947 0 0 0
2053 0 6 0 -13.3875 -6.2475 -24.88174052663997 0 0 0
2056 0 6 0 -11.6025 -4.4624999999999995 -24.88174052663997 0 0 0
2057 0 6 0 -10.709999999999999 -7.14 -25.774240526639947 0 0 0
2061 0 6 0 -9.817499999999999 -6.2475 -24.88174052663997 0 0 0
2121 0 6 0 -17.849999999999998 -3.57 -25.774240526639947 0 0 0
2124 0 6 0 -16.064999999999998 -1.785 -25.774240526639947 0 0 0
2125 0 6 0 -16.9575 -2.6774999999999998 -24.88174052663997 0 0 0
2128 0 6 0 -15.1725 -0.8925 -24.88174052663997 0 0 0
2129 0 6 0 -14.28 -3.57 -25.774240526639947 0 0 0
2132 0 6 0 -12.495 -1.785 -25.774240526639947 0 0 0
2133 0 6 0 -13.3875 -2.6774999999999998 -24.88174052663997 0 0 0
2136 0 6 0 -11.6025 -0.8925 -24.88174052663997 0 0 0
2137 0 6 0 -10.709999999999999 -3.57 -25.774240526639947 0 0 0
2141 0 6 0 -9.817499999999999 -2.6774999999999998 -24.88174052663997 0 0 0
1962 0 6 0 -17.849999999999998 -8.924999999999999 -23.989240526640064 0 0 0
1970 0 6 0 -14.28 -8.924999999999999 -23.989240526640064 0 0 0
1978 0 6 0 -10.709999999999999 -8.924999999999999 -23.989240526640064 0 0 0
2042 0 6 0 -17.849999999999998 -5.3549999999999995 -23.989240526640064 0 0 0
2043 0 6 0 -16.064999999999998 -7.14 -23.989240526640064 0 0 0
2050 0 6 0 -14.28 -5.3549999999999995 -23.989240526640064 0 0 0
2051 0 6 0 -12.495 -7.14 -23.989240526640064 0 0 0
2058 0 6 0 -10.709999999999999 -5.3549999999999995 -23.989240526640064 0 0 0
2122 0 6 0 -17.849999999999998 -1.785 -23.989240526640064 0 0 0
2123 0 6 0 -16.064999999999998 -3.57 -23.989240526640064 0 0 0
2130 0 6 0 -14.28 -1.785 -23.989240526640064 0 0 0
2131 0 6 0 -12.495 -3.57 -23.989240526640064 0 0 0
2138 0 6 0 -10.709999999999999 -1.785 -23.989240526640064 0 0 0
1980 0 6 0 -8.924999999999999 -8.924999999999999 -25.774240526639947 0 0 0
1984 0 6 0 -8.032499999999999 -8.032499999999999 -24.88174052663997 0 0 0
1988 0 6 0 -5.3549999999999995 -8.924999999999999 -25.774240526639947 0 0 0
1992 0 6 0 -4.4624999999999995 -8.032499999999999 -24.88174052663997 0 0 0
1996 0 6 0 -1.785 -8.924999999999999 -25.774240526639947 0 0 0
2000 0 6 0 -0.8925 -8.032499999999999 -24.88174052663997 0 0 0
2060 0 6 0 -8.924999999999999 -5.3549999999999995 -25.774240526639947 0 0 0
2064 0 6 0 -8.032499999999999 -4.4624999999999995 -24.88174052663997 0 0 0
2065 0 6 0 -7.14 -7.14 -25.774240526639947 0 0 0
2068 0 6 0 -5.3549999999999995 -5.3549999999999995 -25.774240526639947 0 0 0
2069 0 6 0 -6.2475 -6.2475 -24.88174052663997 0 0 0
2072 0 6 0 -4.4624999999999995 -4.4624999999999995 -24.88174052663997 0 0 0
2073 0 6 0 -3.57 -7.14 -25.774240526639947 0 0 0
2076 0 6 0 -1.785 -5.3549999999999995 -25.774240526639947 0 0 0
2077 0 6 0 -2.6774999999999998 -6.2475 -24.88174052663997 0 0 0
2080 0 6 0 -0.8925 -4.4624999999999995 -24.88174052663997 0 0 0
2140 0 6 0 -8.924999999999999 -1.785 -25.774240526639947 0 0 0
2144 0 6 0 -8.032499999999999 -0.8925 -24.88174052663997 0 0 0
2145 0 6 0 -7.14 -3.57 -25.774240526639947 0 0 0
2148 0 6 0 -5.3549999999999995 -1.785 -25.774240526639947 0 0 0
2149 0 6 0 -6.2475 -2.6774999999999998 -24.88174052663997 0 0 0
2152 0 6 0 -4.4624999999999995 -0.8925 -24.88174052663997 0 0 0
2153 0 6 0 -3.57 -3.57 -25.774240526639947 0 0 0
2156 0 6 0 -1.785 -1.785 -25.774240526639947 0 0 0
2157 0 6 0 -2.6774999999999998 -2.6774999999999998 -24.88174052663997 0 0 0
2160 0 6 0 -0.8925 -0.8925 -24.88174052663997 0 0 0
1986 0 6 0 -7.14 -8.924999999999999 -23.989240526640064 0 0 0
1994 0 6 0 -3.57 -8.924999999999999 -23.989240526640064 0 0 0
2059 0 6 0 -8.924999999999999 -7.14 -23.989240526640064 0 0 0
2066 0 6 0 -7.14 -5.3549999999999995 -23.989240526640064 0 0 0
2067 0 6 0 -5.3549999999999995 -7.14 -23.989240526640064 0 0 0
2074 0 6 0 -3.57 -5.3549999999999995 -23.989240526640064 0 0 0
2075 0 6 0 -1.785 -7.14 -23.989240526640064 0 0 0
2139 0 6 0 -8.924999999999999 -3.57 -23.989240526640064 0 0 0
2146 0 6 0 -7.14 -1.785 -23.989240526640064 0 0 0
2147 0 6 0 -5.3549999999999995 -3.57 -23.989240526640064 0 0 0
2154 0 6 0 -3.57 -1.785 -23.989240526640064 0 0 0
2155 0 6 0 -1.785 -3.57 -23.989240526640064 0 0 0
2004 0 6 0 1.785 -8.924999999999999 -25.774240526639947 0 0 0
2008 0 6 0 2.6774999999999998 -8.032499999999999 -24.88174052663997 0 0 0
2012 0 6 0 5.3549999999999995 -8.924999999999999 -25.774240526639947 0 0 0
2016 0 6 0 6.2475 -8.032499999999999 -24.88174052663997 0 0 0
2081 0 6 0 0 -7.14 -25.774240526639947 0 0 0
2084 0 6 0 1.785 -5.3549999999999995 -25.774240526639947 0 0 0
2085 0 6 0 0.8925 -6.2475 -24.88174052663997 0 0 0
2088 0 6 0 2.6774999999999998 -4.4624999999999995 -24.88174052663997 0 0 0
2089 0 6 0 3.57 -7.14 -25.774240526639947 0 0 0
2092 0 6 0 5.3549999999999995 -5.3549999999999995 -25.774240526639947 0 0 0
2093 0 6 0 4.4624999999999995 -6.2475 -24.88174052663997 0 0 0
2096 0 6 0 6.2475 -4.4624999999999995 -24.88174052663997 0 0 0
2097 0 6 0 7.14 -7.14 -25.774240526639947 0 0 0
2101 0 6 0 8.032499999999999 -6.2475 -24.88174052663997 0 0 0
2161 0 6 0 0 -3.57 -25.774240526639947 0 0 0
2164 0 6 0 1.785 -1.785 -25.774240526639947 0 0 0
2165 0 6 0 0.8925 -2.6774999999999998 -24.88174052663997 0 0 0
2168 0 6 0 2.6774999999999998 -0.8925 -24.88174052663997 0 0 0
2169 0 6 0 3.57 -3.57 -25.774240526639947 0 0 0
2172 0 6 0 5.3549999999999995 -1.785 -25.774240526639947 0 0 0
2173 0 6 0 4.4624999999999995 -2.6774999999999998 -24.88174052663997 0 0 0
2176 0 6 0 6.2475 -0.8925 -24.88174052663997 0 0 0
2177 0 6 0 7.14 -3.57 -25.774240526639947 0 0 0
2181 0 6 0 8.032499999999999 -2.6774999999999998 -24.88174052663997 0 0 0
2002 0 6 0 0 -8.924999999999999 -23.989240526640064 0 0 0
2010 0 6 0 3.57 -8.924999999999999 -23.989240526640064 0 0 0
2018 0 6 0 7.14 -8.924999999999999 -23.989240526640064 0 0 0
2082 0 6 0 0 -5.3549999999999995 -23.989240526640064 0 0 0
2083 0 6 0 1.785 -7.14 -23.989240526640064 0 0 0
2090 0 6 0 3.57 -5.3549999999999995 -23.989240526640064 0 0 0
2091 0 6 0 5.3549999999999995 -7.14 -23.989240526640064 0 0 0
2098 0 6 0 7.14 -5.3549999999999995 -23.989240526640064 0 0 0
2162 0 6 0 0 -1.785 -23.989240526640064 0 0 0
2163 0 6 0 1.785 -3.57 -23.989240526640064 0 0 0
2170 0 6 0 3.57 -1.785 -23.989240526640064 0 0 0
2171 0 6 0 5.3549999999999995 -3.57 -23.989240526640064 0 0 0
2178 0 6 0 7.14 -1.785 -23.989240526640064 0 0 0
2020 0 6 0 8.924999999999999 -8.924999999999999 -25.774240526639947 0 0 0
2024 0 6 0 9.817499999999999 -8.032499999999999 -24.88174052663997 0 0 0
2028 0 6 0 12.495 -8.924999999999999 -25.774240526639947 0 0 0
2032 0 6 0 13.3875 -8.032499999999999 -24.88174052663997 0 0 0
2036 0 6 0 16.064999999999998 -8.924999999999999 -25.774240526639947 0 0 0
2040 0 6 0 16.9575 -8.032499999999999 -24.88174052663997 0 0 0
2100 0 6 0 8.924999999999999 -5.3549999999999995 -25.774240526639947 0 0 0
2104 0 6 0 9.817499999999999 -4.4624999999999995 -24.88174052663997 0 0 0
2105 0 6 0 10.709999999999999 -7.14 -25.774240526639947 0 0 0
2108 0 6 0 12.495 -5.3549999999999995 -25.774240526639947 0 0 0
2109 0 6 0 11.6025 -6.2475 -24.88174052663997 0 0 0
2112 0 6 0 13.3875 -4.4624999999999995 -24.88174052663997 0 0 0
2113 0 6 0 14.28 -7.14 -25.774240526639947 0 0 0
2116 0 6 0 16.064999999999998 -5.3549999999999995 -25.774240526639947 0 0 0
2117 0 6 0 15.1725 -6.2475 -24.88174052663997 0 0 0
2120 0 6 0 16.9575 -4.4624999999999995 -24.88174052663997 0 0 0
2180 0 6 0 8.924999999999999 -1.785 -25.774240526639947 0 0 0
2184 0 6 0 9.817499999999999 -0.8925 -24.88174052663997 0 0 0
2185 0 6 0 10.709999999999999 -3.57 -25.774240526639947 0 0 0
2188 0 6 0 12.495 -1.785 -25.774240526639947 0 0 0
2189 0 6 0 11.6025 -2.6774999999999998 -24.88174052663997 0 0 0
2192 0 6 0 13.3875 -0.8925 -24.88174052663997 0 0 0
2193 0 6 0 14.28 -3.57 -25.774240526639947 0 0 0
2196 0 6 0 16.064999999999998 -1.785 -25.774240526639947 0 0 0
2197 0 6 0 15.1725 -2.6774999999999998 -24.88174052663997 0 0 0
2200 0 6 0 16.9575 -0.8925 -24.88174052663997 0 0 0
2026 0 6 0 10.709999999999999 -8.924999999999999 -23.989240526640064 0 0 0
2034 0 6 0 14.28 -8.924999999999999 -23.989240526640064 0 0 0
2099 0 6 0 8.924999999999999 -7.14 -23.989240526640064 0 0 0
2106 0 6 0 10.709999999999999 -5.3549999999999995 -23.989240526640064 0 0 0
2107 0 6 0 12.495 -7.14 -23.989240526640064 0 0 0
2114 0 6 0 14.28 -5.3549999999999995 -23.989240526640064 0 0 0
2115 0 6 0 16.064999999999998 -7.14 -23.989240526640064 0 0 0
2179 0 6 0 8.924999999999999 -3.57 -23.989240526640064 0 0 0
2186 0 6 0 10.709999999999999 -1.785 -23.989240526640064 0 0 0
2187 0 6 0 12.495 -3.57 -23.989240526640064 0 0 0
2194 0 6 0 14.28 -1.785 -23.989240526640064 0 0 0
2195 0 6 0 16.064999999999998 -3.57 -23.989240526640064 0 0 0
2201 0 6 0 -17.849999999999998 0 -25.774240526639947 0 0 0
2204 0 6 0 -16.064999999999998 1.785 -25.774240526639947 0 0 0
2205 0 6 0 -16.9575 0.8925 -24.88174052663997 0 0 0
2208 0 6 0 -15.1725 2.6774999999999998 -24.88174052663997 0 0 0
2209 0 6 0 -14.28 0 -25.774240526639947 0 0 0
2212 0 6 0 -12.495 1.785 -25.774240526639947 0 0 0
2213 0 6 0 -13.3875 0.8925 -24.88174052663997 0 0 0
2216 0 6 0 -11.6025 2.6774999999999998 -24.88174052663997 0 0 0
2217 0 6 0 -10.709999999999999 0 -25.774240526639947 0 0 0
2221 0 6 0 -9.817499999999999 0.8925 -24.88174052663997 0 0 0
2281 0 6 0 -17.849999999999998 3.57 -25.774240526639947 0 0 0
2284 0 6 0 -16.064999999999998 5.3549999999999995 -25.774240526639947 0 0 0
2285 0 6 0 -16.9575 4.4624999999999995 -24.88174052663997 0 0 0
2288 0 6 0 -15.1725 6.2475 -24.88174052663997 0 0 0
2289 0 6 0 -14.28 3.57 -25.774240526639947 0 0 0
2292 0 6 0 -12.495 5.3549999999999995 -25.774240526639947 0 0 0
2293 0 6 0 -13.3875 4.4624999999999995 -24.88174052663997 0 0 0
2296 0 6 0 -11.6025 6.2475 -24.88174052663997 0 0 0
2297 0 6 0 -10.709999999999999 3.57 -25.774240526639947 0 0 0
2301 0 6 0 -9.817499999999999 4.4624999999999995 -24.88174052663997 0 0 0
2361 0 6 0 -17.849999999999998 7.14 -25.774240526639947 0 0 0
2365 0 6 0 -16.9575 8.032499999999999 -24.88174052663997 0 0 0
2369 0 6 0 -14.28 7.14 -25.774240526639947 0 0 0
2373 0 6 0 -13.3875 8.032499999999999 -24.88174052663997 0 0 0
2377 0 6 0 -10.709999999999999 7.14 -25.774240526639947 0 0 0
2381 0 6 0 -9.817499999999999 8.032499999999999 -24.88174052663997 0 0 0
2202 0 6 0 -17.849999999999998 1.785 -23.989240526640064 0 0 0
2203 0 6 0 -16.064999999999998 0 -23.989240526640064 0 0 0
2210 0 6 0 -14.28 1.785 -23.989240526640064 0 0 0
2211 0 6 0 -12.495 0 -23.989240526640064 0 0 0
2218 0 6 0 -10.709999999999999 1.785 -23.989240526640064 0 0 0
2282 0 6 0 -17.849999999999998 5.3549999999999995 -23.989240526640064 0 0 0
2283 0 6 0 -16.064999999999998 3.57 -23.989240526640064 0 0 0
2290 0 6 0 -14.28 5.3549999999999995 -23.989240526640064 0 0 0
2291 0 6 0 -12.495 3.57 -23.989240526640064 0 0 0
2298 0 6 0 -10.709999999999999 5.3549999999999995 -23.989240526640064 0 0 0
2363 0 6 0 -16.064999999999998 7.14 -23.989240526640064 0 0 0
2371 0 6 0 -12.495 7.14 -23.989240526640064 0 0 0
2220 0 6 0 -8.924999999999999 1.785 -25.774240526639947 0 0 0
2224 0 6 0 -8.032499999999999 2.6774999999999998 -24.88174052663997 0 0 0
2225 0 6 0 -7.14 0 -25.774240526639947 0 0 0
2228 0 6 0 -5.3549999999999995 1.785 -25.774240526639947 0 0 0
2229 0 6 0 -6.2475 0.8925 -24.88174052663997 0 0 0
2232 0 6 0 -4.4624999999999995 2.6774999999999998 -24.88174052663997 0 0 0
2233 0 6 0 -3.57 0 -25.774240526639947 0 0 0
2236 0 6 0 -1.785 1.785 -25.774240526639947 0 0 0
2237 0 6 0 -2.6774999999999998 0.8925 -24.88174052663997 0 0 0
2240 0 6 0 -0.8925 2.6774999999999998 -24.88174052663997 0 0 0
2300 0 6 0 -8.924999999999999 5.3549999999999995 -25.774240526639947 0 0 0
2304 0 6 0 -8.032499999999999 6.2475 -24.88174052663997 0 0 0
2305 0 6 0 -7.14 3.57 -25.774240526639947 0 0 0
2308 0 6 0 -5.3549999999999995 5.3549999999999995 -25.774240526639947 0 0 0
2309 0 6 0 -6.2475 4.4624999999999995 -24.88174052663997 0 0 0
2312 0 6 0 -4.4624999999999995 6.2475 -24.88174052663997 0 0 0
2313 0 6 0 -3.57 3.57 -25.774240526639947 0 0 0
2316 0 6 0 -1.785 5.3549999999999995 -25.774240526639947 0 0 0
2317 0 6 0 -2.6774999999999998 4.4624999999999995 -24.88174052663997 0 0 0
2320 0 6 0 -0.8925 6.2475 -24.88174052663997 0 0 0
2385 0 6 0 -7.14 7.14 -25.774240526639947 0 0 0
2389 0 6 0 -6.2475 8.032499999999999 -24.88174052663997 0 0 0
2393 0 6 0 -3.57 7.14 -25.774240526639947 0 0 0
2397 0 6 0 -2.6774999999999998 8.032499999999999 -24.88174052663997 0 0 0
2219 0 6 0 -8.924999999999999 0 -23.989240526640064 0 0 0
2226 0 6 0 -7.14 1.785 -23.989240526640064 0 0 0
2227 0 6 0 -5.3549999999999995 0 -23.989240526640064 0 0 0
2234 0 6 0 -3.57 1.785 -23.989240526640064 0 0 0
2235 0 6 0 -1.785 0 -23.989240526640064 0 0 0
2299 0 6 0 -8.924999999999999 3.57 -23.989240526640064 0 0 0
2306 0 6 0 -7.14 5.3549999999999995 -23.989240526640064 0 0 0
2307 0 6 0 -5.3549999999999995 3.57 -23.989240526640064 0 0 0
2314 0 6 0 -3.57 5.3549999999999995 -23.989240526640064 0 0 0
2315 0 6 0 -1.785 3.57 -23.989240526640064 0 0 0
2379 0 6 0 -8.924999999999999 7.14 -23.989240526640064 0 0 0
2387 0 6 0 -5.3549999999999995 7.14 -23.989240526640064 0 0 0
2395 0 6 0 -1.785 7.14 -23.989240526640064 0 0 0
2241 0 6 0 0 0 -25.774240526639947 0 0 0
2244 0 6 0 1.785 1.785 -25.774240526639947 0 0 0
2245 0 6 0 0.8925 0.8925 -24.88174052663997 0 0 0
2248 0 6 0 2.6774999999999998 2.6774999999999998 -24.88174052663997 0 0 0
2249 0 6 0 3.57 0 -25.774240526639947 0 0 0
2252 0 6 0 5.3549999999999995 1.785 -25.774240526639947 0 0 0
2253 0 6 0 4.4624999999999995 0.8925 -24.88174052663997 0 0 0
2256 0 6 0 6.2475 2.6774999999999998 -24.88174052663997 0 0 0
2257 0 6 0 7.14 0 -25.774240526639947 0 0 0
2261 0 6 0 8.032499999999999 0.8925 -24.88174052663997 0 0 0
2321 0 6 0 0 3.57 -25.774240526639947 0 0 0
2324 0 6 0 1.785 5.3549999999999995 -25.774240526639947 0 0 0
2325 0 6 0 0.8925 4.4624999999999995 -24.88174052663997 0 0 0
2328 0 6 0 2.6774999999999998 6.2475 -24.88174052663997 0 0 0
2329 0 6 0 3.57 3.57 -25.774240526639947 0 0 0
2332 0 6 0 5.3549999999999995 5.3549999999999995 -25.774240526639947 0 0 0
2333 0 6 0 4.4624999999999995 4.4624999999999995 -24.88174052663997 0 0 0
2336 0 6 0 6.2475 6.2475 -24.88174052663997 0 0 0
2337 0 6 0 7.14 3.57 -25.774240526639947 0 0 0
2341 0 6 0 8.032499999999999 4.4624999999999995 -24.88174052663997 0 0 0
2401 0 6 0 0 7.14 -25.774240526639947 0 0 0
2405 0 6 0 0.8925 8.032499999999999 -24.88174052663997 0 0 0
2409 0 6 0 3.57 7.14 -25.774240526639947 0 0 0
2413 0 6 0 4.4624999999999995 8.032499999999999 -24.88174052663997 0 0 0
2417 0 6 0 7.14 7.14 -25.774240526639947 0 0 0
2421 0 6 0 8.032499999999999 8.032499999999999 -24.88174052663997 0 0 0
2242 0 6 0 0 1.785 -23.989240526640064 0 0 0
2243 0 6 0 1.785 0 -23.989240526640064 0 0 0
2250 0 6 0 3.57 1.785 -23.989240526640064 0 0 0
2251 0 6 0 5.3549999999999995 0 -23.989240526640064 0 0 0
2258 0 6 0 7.14 1.785 -23.989240526640064 0 0 0
2322 0 6 0 0 5.3549999999999995 -23.989240526640064 0 0 0
2323 0 6 0 1.785 3.57 -23.989240526640064 0 0 0
2330 0 6 0 3.57 5.3549999999999995 -23.989240526640064 0 0 0
2331 0 6 0 5.3549999999999995 3.57 -23.989240526640064 0 0 0
2338 0 6 0 7.14 5.3549999999999995 -23.989240526640064 0 0 0
2403 0 6 0 1.785 7.14 -23.989240526640064 0 0 0
2411 0 6 0 5.3549999999999995 7.14 -23.989240526640064 0 0 0
2260 0 6 0 8.924999999999999 1.785 -25.774240526639947 0 0 0
2264 0 6 0 9.817499999999999 2.6774999999999998 -24.88174052663997 0 0 0
2265 0 6 0 10.709999999999999 0 -25.774240526639947 0 0 0
2268 0 6 0 12.495 1.785 -25.774240526639947 0 0 0
2269 0 6 0 11.6025 0.8925 -24.88174052663997 0 0 0
2272 0 6 0 13.3875 2.6774999999999998 -24.88174052663997 0 0 0
2273 0 6 0 14.28 0 -25.774240526639947 0 0 0
2276 0 6 0 16.064999999999998 1.785 -25.774240526639947 0 0 0
2277 0 6 0 15.1725 0.8925 -24.88174052663997 0 0 0
2280 0 6 0 16.9575 2.6774999999999998 -24.88174052663997 0 0 0
2340 0 6 0 8.924999999999999 5.3549999999999995 -25.774240526639947 0 0 0
2344 0 6 0 9.817499999999999 6.2475 -24.88174052663997 0 0 0
2345 0 6 0 10.709999999999999 3.57 -25.774240526639947 0 0 0
2348 0 6 0 12.495 5.3549999999999995 -25.774240526639947 0 0 0
2349 0 6 0 11.6025 4.4624999999999995 -24.88174052663997 0 0 0
2352 0 6 0 13.3875 6.2475 -24.88174052663997 0 0 0
2353 0 6 0 14.28 3.57 -25.774240526639947 0 0 0
2356 0 6 0 16.064999999999998 5.3549999999999995 -25.774240526639947 0 0 0
2357 0 6 0 15.1725 4.4624999999999995 -24.88174052663997 0 0 0
2360 0 6 0 16.9575 6.2475 -24.88174052663997 0 0 0
2425 0 6 0 10.709999999999999 7.14 -25.774240526639947 0 0 0
2429 0 6 0 11.6025 8.032499999999999 -24.88174052663997 0 0 0
2433 0 6 0 14.28 7.14 -25.774240526639947 0 0 0
2437 0 6 0 15.1725 8.032499999999999 -24.88174052663997 0 0 0
2259 0 6 0 8.924999999999999 0 -23.989240526640064 0 0 0
2266 0 6 0 10.709999999999999 1.785 -23.989240526640064 0 0 0
2267 0 6 0 12.495 0 -23.989240526640064 0 0 0
2274 0 6 0 14.28 1.785 -23.989240526640064 0 0 0
2275 0 6 0 16.064999999999998 0 -23.989240526640064 0 0 0
2339 0 6 0 8.924999999999999 3.57 -23.989240526640064 0 0 0
2346 0 6 0 10.709999999999999 5.3549999999999995 -23.989240526640064 0 0 0
2347 0 6 0 12.495 3.57 -23.989240526640064 0 0 0
2354 0 6 0 14.28 5.3549999999999995 -23.989240526640064 0 0 0
2355 0 6 0 16.064999999999998 3.57 -23.989240526640064 0 0 0
2419 0 6 0 8.924999999999999 7.14 -23.989240526640064 0 0 0
2427 0 6 0 12.495 7.14 -23.989240526640064 0 0 0
2435 0 6 0 16.064999999999998 7.14 -23.989240526640064 0 0 0
2364 0 6 0 -16.064999999999998 8.924999999999999 -25.774240526639947 0 0 0
2368 0 6 0 -15.1725 9.817499999999999 -24.88174052663997 0 0 0
2372 0 6 0 -12.495 8.924999999999999 -25.774240526639947 0 0 0
2376 0 6 0 -11.6025 9.817499999999999 -24.88174052663997 0 0 0
2441 0 6 0 -17.849999999999998 10.709999999999999 -25.774240526639947 0 0 0
2444 0 6 0 -16.064999999999998 12.495 -25.774240526639947 0 0 0
2445 0 6 0 -16.9575 11.6025 -24.88174052663997 0 0 0
2448 0 6 0 -15.1725 13.3875 -24.88174052663997 0 0 0
2449 0 6 0 -14.28 10.709999999999999 -25.774240526639947 0 0 0
2452 0 6 0 -12.495 12.495 -25.774240526639947 0 0 0
2453 0 6 0 -13.3875 11.6025 -24.88174052663997 0 0 0
2456 0 6 0 -11.6025 13.3875 -24.88174052663997 0 0 0
2457 0 6 0 -10.709999999999999 10.709999999999999 -25.774240526639947 0 0 0
2461 0 6 0 -9.817499999999999 11.6025 -24.88174052663997 0 0 0
2521 0 6 0 -17.849999999999998 14.28 -25.774240526639947 0 0 0
2524 0 6 0 -16.064999999999998 16.064999999999998 -25.774240526639947 0 0 0
2525 0 6 0 -16.9575 15.1725 -24.88174052663997 0 0 0
2528 0 6 0 -15.1725 16.9575 -24.88174052663997 0 0 0
2529 0 6 0 -14.28 14.28 -25.774240526639947 0 0 0
2532 0 6 0 -12.495 16.064999999999998 -25.774240526639947 0 0 0
2533 0 6 0 -13.3875 15.1725 -24.88174052663997 0 0 0
2536 0 6 0 -11.6025 16.9575 -24.88174052663997 0 0 0
2537 0 6 0 -10.709999999999999 14.28 -25.774240526639947 0 0 0
2541 0 6 0 -9.817499999999999 15.1725 -24.88174052663997 0 0 0
2362 0 6 0 -17.849999999999998 8.924999999999999 -23.989240526640064 0 0 0
2370 0 6 0 -14.28 8.924999999999999 -23.989240526640064 0 0 0
2378 0 6 0 -10.709999999999999 8.924999999999999 -23.989240526640064 0 0 0
2442 0 6 0 -17.849999999999998 12.495 -23.989240526640064 0 0 0
2443 0 6 0 -16.064999999999998 10.709999999999999 -23.989240526640064 0 0 0
2450 0 6 0 -14.28 12.495 -23.989240526640064 0 0 0
2451 0 6 0 -12.495 10.709999999999999 -23.989240526640064 0 0 0
2458 0 6 0 -10.709999999999999 12.495 -23.989240526640064 0 0 0
2522 0 6 0 -17.849999999999998 16.064999999999998 -23.989240526640064 0 0 0