LAMMPS data file via write_data, version 29 Sep 2021, timestep = 10

7751 atoms
6 atom types
2754 bonds
1 bond types
1377 angles
1 angle types

-17.849999999999998 17.849999999999998 xlo xhi
-17.849999999999998 17.849999999999998 ylo yhi
-46.41 46.41 zlo zhi

Masses

1 15.9994
2 1.008
3 28.99
4 35.453
5 12.011
6 12.011

Pair Coeffs # lj/cut/tip4p/long

1 0.185199 3.1589
2 0 0
3 0.0469 2.4299
4 0.15 4.0447
5 0.07 3.55
6 0.07 3.55

Bond Coeffs # harmonic

1 0 0.9572

Angle Coeffs # harmonic

1 0 104.52

Atoms # full

1801 0 6 0 -17.849999999999998 -17.849999999999998 -42.839999999999996 0 0 0
1802 0 6 0 -17.849999999999998 -16.064999999999998 -41.055 0 0 0
1803 0 6 0 -16.064999999999998 -17.849999999999998 -41.055 0 0 0
1804 0 6 0 -16.064999999999998 -16.064999999999998 -42.839999999999996 0 0 0
1805 0 6 0 -16.9575 -16.9575 -41.9475 0 0 0
1806 0 6 0 -16.9575 -15.1725 -40.1625 0 0 0
1807 0 6 0 -15.1725 -16.9575 -40.1625 0 0 0
1808 0 6 0 -15.1725 -15.1725 -41.9475 0 0 0
1809 0 6 0 -14.28 -17.849999999999998 -42.839999999999996 0 0 0
1810 0 6 0 -14.28 -16.064999999999998 -41.055 0 0 0
1811 0 6 0 -12.495 -17.849999999999998 -41.055 0 0 0
1812 0 6 0 -12.495 -16.064999999999998 -42.839999999999996 0 0 0
1813 0 6 0 -13.3875 -16.9575 -41.9475 0 0 0
1814 0 6 0 -13.3875 -15.1725 -40.1625 0 0 0
1815 0 6 0 -11.6025 -16.9575 -40.1625 0 0 0
1816 0 6 0 -11.6025 -15.1725 -41.9475 0 0 0
1817 0 6 0 -10.709999999999999 -17.849999999999998 -42.839999999999996 0 0 0
1818 0 6 0 -10.709999999999999 -16.064999999999998 -41.055 0 0 0
1821 0 6 0 -9.817499999999999 -16.9575 -41.9475 0 0 0
1822 0 6 0 -9.817499999999999 -15.1725 -40.1625 0 0 0
1881 0 6 0 -17.849999999999998 -14.28 -42.839999999999996 0 0 0
1882 0 6 0 -17.849999999999998 -12.495 -41.055 0 0 0
1883 0 6 0 -16.064999999999998 -14.28 -41.055 0 0 0
1884 0 6 0 -16.064999999999998 -12.495 -42.839999999999996 0 0 0
1885 0 6 0 -16.9575 -13.3875 -41.9475 0 0 0
1886 0 6 0 -16.9575 -11.6025 -40.1625 0 0 0
1887 0 6 0 -15.1725 -13.3875 -40.1625 0 0 0
1888 0 6 0 -15.1725 -11.6025 -41.9475 0 0 0
1889 0 6 0 -14.28 -14.28 -42.839999999999996 0 0 0
1890 0 6 0 -14.28 -12.495 -41.055 0 0 0
1891 0 6 0 -12.495 -14.28 -41.055 0 0 0
1892 0 6 0 -12.495 -12.495 -42.839999999999996 0 0 0
1893 0 6 0 -13.3875 -13.3875 -41.9475 0 0 0
1894 0 6 0 -13.3875 -11.6025 -40.1625 0 0 0
1895 0 6 0 -11.6025 -13.3875 -40.1625 0 0 0
1896 0 6 0 -11.6025 -11.6025 -41.9475 0 0 0
1897 0 6 0 -10.709999999999999 -14.28 -42.839999999999996 0 0 0
1898 0 6 0 -10.709999999999999 -12.495 -41.055 0 0 0
1901 0 6 0 -9.817499999999999 -13.3875 -41.9475 0 0 0
1902 0 6 0 -9.817499999999999 -11.6025 -40.1625 0 0 0
1961 0 6 0 -17.849999999999998 -10.709999999999999 -42.839999999999996 0 0 0
1963 0 6 0 -16.064999999999998 -10.709999999999999 -41.055 0 0 0
1965 0 6 0 -16.9575 -9.817499999999999 -41.9475 0 0 0
1967 0 6 0 -15.1725 -9.817499999999999 -40.1625 0 0 0
1969 0 6 0 -14.28 -10.709999999999999 -42.839999999999996 0 0 0
1971 0 6 0 -12.495 -10.709999999999999 -41.055 0 0 0
1973 0 6 0 -13.3875 -9.817499999999999 -41.9475 0 0 0
1975 0 6 0 -11.6025 -9.817499999999999 -40.1625 0 0 0
1977 0 6 0 -10.709999999999999 -10.709999999999999 -42.839999999999996 0 0 0
1981 0 6 0 -9.817499999999999 -9.817499999999999 -41.9475 0 0 0
2601 0 6 0 -17.849999999999998 -17.849999999999998 -39.269999999999996 0 0 0
2604 0 6 0 -16.064999999999998 -16.064999999999998 -39.269999999999996 0 0 0
2609 0 6 0 -14.28 -17.849999999999998 -39.269999999999996 0 0 0
2612 0 6 0 -12.495 -16.064999999999998 -39.269999999999996 0 0 0
2617 0 6 0 -10.709999999999999 -17.849999999999998 -39.269999999999996 0 0 0
2681 0 6 0 -17.849999999999998 -14.28 -39.269999999999996 0 0 0
2684 0 6 0 -16.064999999999998 -12.495 -39.269999999999996 0 0 0
2689 0 6 0 -14.28 -14.28 -39.269999999999996 0 0 0
2692 0 6 0 -12.495 -12.495 -39.269999999999996 0 0 0
2697 0 6 0 -10.709999999999999 -14.28 -39.269999999999996 0 0 0
2761 0 6 0 -17.849999999999998 -10.709999999999999 -39.269999999999996 0 0 0
2769 0 6 0 -14.28 -10.709999999999999 -39.269999999999996 0 0 0
2777 0 6 0 -10.709999999999999 -10.709999999999999 -39.269999999999996 0 0 0
1819 0 6 0 -8.924999999999999 -17.849999999999998 -41.055 0 0 0
1820 0 6 0 -8.924999999999999 -16.064999999999998 -42.839999999999996 0 0 0
1823 0 6 0 -8.032499999999999 -16.9575 -40.1625 0 0 0
1824 0 6 0 -8.032499999999999 -15.1725 -41.9475 0 0 0
1825 0 6 0 -7.14 -17.849999999999998 -42.839999999999996 0 0 0
1826 0 6 0 -7.14 -16.064999999999998 -41.055 0 0 0
1827 0 6 0 -5.3549999999999995 -17.849999999999998 -41.055 0 0 0
1828 0 6 0 -5.3549999999999995 -16.064999999999998 -42.839999999999996 0 0 0
1829 0 6 0 -6.2475 -16.9575 -41.9475 0 0 0
1830 0 6 0 -6.2475 -15.1725 -40.1625 0 0 0
1831 0 6 0 -4.4624999999999995 -16.9575 -40.1625 0 0 0
1832 0 6 0 -4.4624999999999995 -15.1725 -41.9475 0 0 0
1833 0 6 0 -3.57 -17.849999999999998 -42.839999999999996 0 0 0
1834 0 6 0 -3.57 -16.064999999999998 -41.055 0 0 0
1835 0 6 0 -1.785 -17.849999999999998 -41.055 0 0 0
1836 0 6 0 -1.785 -16.064999999999998 -42.839999999999996 0 0 0
1837 0 6 0 -2.6774999999999998 -16.9575 -41.9475 0 0 0
1838 0 6 0 -2.6774999999999998 -15.1725 -40.1625 0 0 0
1839 0 6 0 -0.8925 -16.9575 -40.1625 0 0 0
1840 0 6 0 -0.8925 -15.1725 -41.9475 0 0 0
1899 0 6 0 -8.924999999999999 -14.28 -41.055 0 0 0
1900 0 6 0 -8.924999999999999 -12.495 -42.839999999999996 0 0 0
1903 0 6 0 -8.032499999999999 -13.3875 -40.1625 0 0 0
1904 0 6 0 -8.032499999999999 -11.6025 -41.9475 0 0 0
1905 0 6 0 -7.14 -14.28 -42.839999999999996 0 0 0
1906 0 6 0 -7.14 -12.495 -41.055 0 0 0
1907 0 6 0 -5.3549999999999995 -14.28 -41.055 0 0 0
1908 0 6 0 -5.3549999999999995 -12.495 -42.839999999999996 0 0 0
1909 0 6 0 -6.2475 -13.3875 -41.9475 0 0 0
1910 0 6 0 -6.2475 -11.6025 -40.1625 0 0 0
1911 0 6 0 -4.4624999999999995 -13.3875 -40.1625 0 0 0
1912 0 6 0 -4.4624999999999995 -11.6025 -41.9475 0 0 0
1913 0 6 0 -3.57 -14.28 -42.839999999999996 0 0 0
1914 0 6 0 -3.57 -12.495 -41.055 0 0 0
1915 0 6 0 -1.785 -14.28 -41.055 0 0 0
1916 0 6 0 -1.785 -12.495 -42.839999999999996 0 0 0
1917 0 6 0 -2.6774999999999998 -13.3875 -41.9475 0 0 0
1918 0 6 0 -2.6774999999999998 -11.6025 -40.1625 0 0 0
1919 0 6 0 -0.8925 -13.3875 -40.1625 0 0 0
1920 0 6 0 -0.8925 -11.6025 -41.9475 0 0 0
1979 0 6 0 -8.924999999999999 -10.709999999999999 -41.055 0 0 0
1983 0 6 0 -8.032499999999999 -9.817499999999999 -40.1625 0 0 0
1985 0 6 0 -7.14 -10.709999999999999 -42.839999999999996 0 0 0
1987 0 6 0 -5.3549999999999995 -10.709999999999999 -41.055 0 0 0
1989 0 6 0 -6.2475 -9.817499999999999 -41.9475 0 0 0
1991 0 6 0 -4.4624999999999995 -9.817499999999999 -40.1625 0 0 0
1993 0 6 0 -3.57 -10.709999999999999 -42.839999999999996 0 0 0
1995 0 6 0 -1.785 -10.709999999999999 -41.055 0 0 0
1997 0 6 0 -2.6774999999999998 -9.817499999999999 -41.9475 0 0 0
1999 0 6 0 -0.8925 -9.817499999999999 -40.1625 0 0 0
2620 0 6 0 -8.924999999999999 -16.064999999999998 -39.269999999999996 0 0 0
2625 0 6 0 -7.14 -17.849999999999998 -39.269999999999996 0 0 0
2628 0 6 0 -5.3549999999999995 -16.064999999999998 -39.269999999999996 0 0 0
2633 0 6 0 -3.57 -17.849999999999998 -39.269999999999996 0 0 0
2636 0 6 0 -1.785 -16.064999999999998 -39.269999999999996 0 0 0
2700 0 6 0 -8.924999999999999 -12.495 -39.269999999999996 0 0 0
2705 0 6 0 -7.14 -14.28 -39.269999999999996 0 0 0
2708 0 6 0 -5.3549999999999995 -12.495 -39.269999999999996 0 0 0
2713 0 6 0 -3.57 -14.28 -39.269999999999996 0 0 0
2716 0 6 0 -1.785 -12.495 -39.269999999999996 0 0 0
2785 0 6 0 -7.14 -10.709999999999999 -39.269999999999996 0 0 0
2793 0 6 0 -3.57 -10.709999999999999 -39.269999999999996 0 0 0
1841 0 6 0 0 -17.849999999999998 -42.839999999999996 0 0 0
1842 0 6 0 0 -16.064999999999998 -41.055 0 0 0
1843 0 6 0 1.785 -17.849999999999998 -41.055 0 0 0
1844 0 6 0 1.785 -16.064999999999998 -42.839999999999996 0 0 0
1845 0 6 0 0.8925 -16.9575 -41.9475 0 0 0
1846 0 6 0 0.8925 -15.1725 -40.1625 0 0 0
1847 0 6 0 2.6774999999999998 -16.9575 -40.1625 0 0 0
1848 0 6 0 2.6774999999999998 -15.1725 -41.9475 0 0 0
1849 0 6 0 3.57 -17.849999999999998 -42.839999999999996 0 0 0
1850 0 6 0 3.57 -16.064999999999998 -41.055 0 0 0
1851 0 6 0 5.3549999999999995 -17.849999999999998 -41.055 0 0 0
1852 0 6 0 5.3549999999999995 -16.064999999999998 -42.839999999999996 0 0 0
1853 0 6 0 4.4624999999999995 -16.9575 -41.9475 0 0 0
1854 0 6 0 4.4624999999999995 -15.1725 -40.1625 0 0 0
1855 0 6 0 6.2475 -16.9575 -40.1625 0 0 0
1856 0 6 0 6.2475 -15.1725 -41.9475 0 0 0
1857 0 6 0 7.14 -17.849999999999998 -42.839999999999996 0 0 0
1858 0 6 0 7.14 -16.064999999999998 -41.055 0 0 0
1861 0 6 0 8.032499999999999 -16.9575 -41.9475 0 0 0
1862 0 6 0 8.032499999999999 -15.1725 -40.1625 0 0 0
1921 0 6 0 0 -14.28 -42.839999999999996 0 0 0
1922 0 6 0 0 -12.495 -41.055 0 0 0
1923 0 6 0 1.785 -14.28 -41.055 0 0 0
1924 0 6 0 1.785 -12.495 -42.839999999999996 0 0 0
1925 0 6 0 0.8925 -13.3875 -41.9475 0 0 0
1926 0 6 0 0.8925 -11.6025 -40.1625 0 0 0
1927 0 6 0 2.6774999999999998 -13.3875 -40.1625 0 0 0
1928 0 6 0 2.6774999999999998 -11.6025 -41.9475 0 0 0
1929 0 6 0 3.57 -14.28 -42.839999999999996 0 0 0
1930 0 6 0 3.57 -12.495 -41.055 0 0 0
1931 0 6 0 5.3549999999999995 -14.28 -41.055 0 0 0
1932 0 6 0 5.3549999999999995 -12.495 -42.839999999999996 0 0 0
1933 0 6 0 4.4624999999999995 -13.3875 -41.9475 0 0 0
1934 0 6 0 4.4624999999999995 -11.6025 -40.1625 0 0 0
1935 0 6 0 6.2475 -13.3875 -40.1625 0 0 0
1936 0 6 0 6.2475 -11.6025 -41.9475 0 0 0
1937 0 6 0 7.14 -14.28 -42.839999999999996 0 0 0
1938 0 6 0 7.14 -12.495 -41.055 0 0 0
1941 0 6 0 8.032499999999999 -13.3875 -41.9475 0 0 0
1942 0 6 0 8.032499999999999 -11.6025 -40.1625 0 0 0
2001 0 6 0 0 -10.709999999999999 -42.839999999999996 0 0 0
2003 0 6 0 1.785 -10.709999999999999 -41.055 0 0 0
2005 0 6 0 0.8925 -9.817499999999999 -41.9475 0 0 0
2007 0 6 0 2.6774999999999998 -9.817499999999999 -40.1625 0 0 0
2009 0 6 0 3.57 -10.709999999999999 -42.839999999999996 0 0 0
2011 0 6 0 5.3549999999999995 -10.709999999999999 -41.055 0 0 0
2013 0 6 0 4.4624999999999995 -9.817499999999999 -41.9475 0 0 0
2015 0 6 0 6.2475 -9.817499999999999 -40.1625 0 0 0
2017 0 6 0 7.14 -10.709999999999999 -42.839999999999996 0 0 0
2021 0 6 0 8.032499999999999 -9.817499999999999 -41.9475 0 0 0
2641 0 6 0 0 -17.849999999999998 -39.269999999999996 0 0 0
2644 0 6 0 1.785 -16.064999999999998 -39.269999999999996 0 0 0
2649 0 6 0 3.57 -17.849999999999998 -39.269999999999996 0 0 0
2652 0 6 0 5.3549999999999995 -16.064999999999998 -39.269999999999996 0 0 0
2657 0 6 0 7.14 -17.849999999999998 -39.269999999999996 0 0 0
2721 0 6 0 0 -14.28 -39.269999999999996 0 0 0
2724 0 6 0 1.785 -12.495 -39.269999999999996 0 0 0
2729 0 6 0 3.57 -14.28 -39.269999999999996 0 0 0
2732 0 6 0 5.3549999999999995 -12.495 -39.269999999999996 0 0 0
2737 0 6 0 7.14 -14.28 -39.269999999999996 0 0 0
2801 0 6 0 0 -10.709999999999999 -39.269999999999996 0 0 0
2809 0 6 0 3.57 -10.709999999999999 -39.269999999999996 0 0 0
2817 0 6 0 7.14 -10.709999999999999 -39.269999999999996 0 0 0
1859 0 6 0 8.924999999999999 -17.849999999999998 -41.055 0 0 0
1860 0 6 0 8.924999999999999 -16.064999999999998 -42.839999999999996 0 0 0
1863 0 6 0 9.817499999999999 -16.9575 -40.1625 0 0 0
1864 0 6 0 9.817499999999999 -15.1725 -41.9475 0 0 0
1865 0 6 0 10.709999999999999 -17.849999999999998 -42.839999999999996 0 0 0
1866 0 6 0 10.709999999999999 -16.064999999999998 -41.055 0 0 0
1867 0 6 0 12.495 -17.849999999999998 -41.055 0 0 0
1868 0 6 0 12.495 -16.064999999999998 -42.839999999999996 0 0 0
1869 0 6 0 11.6025 -16.9575 -41.9475 0 0 0
1870 0 6 0 11.6025 -15.1725 -40.1625 0 0 0
1871 0 6 0 13.3875 -16.9575 -40.1625 0 0 0
1872 0 6 0 13.3875 -15.1725 -41.9475 0 0 0
1873 0 6 0 14.28 -17.849999999999998 -42.839999999999996 0 0 0
1874 0 6 0 14.28 -16.064999999999998 -41.055 0 0 0
1875 0 6 0 16.064999999999998 -17.849999999999998 -41.055 0 0 0
1876 0 6 0 16.064999999999998 -16.064999999999998 -42.839999999999996 0 0 0
1877 0 6 0 15.1725 -16.9575 -41.9475 0 0 0
1878 0 6 0 15.1725 -15.1725 -40.1625 0 0 0
1879 0 6 0 16.9575 -16.9575 -40.1625 0 0 0
1880 0 6 0 16.9575 -15.1725 -41.9475 0 0 0
1939 0 6 0 8.924999999999999 -14.28 -41.055 0 0 0
1940 0 6 0 8.924999999999999 -12.495 -42.839999999999996 0 0 0
1943 0 6 0 9.817499999999999 -13.3875 -40.1625 0 0 0
1944 0 6 0 9.817499999999999 -11.6025 -41.9475 0 0 0
1945 0 6 0 10.709999999999999 -14.28 -42.839999999999996 0 0 0
1946 0 6 0 10.709999999999999 -12.495 -41.055 0 0 0
1947 0 6 0 12.495 -14.28 -41.055 0 0 0
1948 0 6 0 12.495 -12.495 -42.839999999999996 0 0 0
1949 0 6 0 11.6025 -13.3875 -41.9475 0 0 0
1950 0 6 0 11.6025 -11.6025 -40.1625 0 0 0
1951 0 6 0 13.3875 -13.3875 -40.1625 0 0 0
1952 0 6 0 13.3875 -11.6025 -41.9475 0 0 0
1953 0 6 0 14.28 -14.28 -42.839999999999996 0 0 0
1954 0 6 0 14.28 -12.495 -41.055 0 0 0
1955 0 6 0 16.064999999999998 -14.28 -41.055 0 0 0
1956 0 6 0 16.064999999999998 -12.495 -42.839999999999996 0 0 0
1957 0 6 0 15.1725 -13.3875 -41.9475 0 0 0
1958 0 6 0 15.1725 -11.6025 -40.1625 0 0 0
1959 0 6 0 16.9575 -13.3875 -40.1625 0 0 0
1960 0 6 0 16.9575 -11.6025 -41.9475 0 0 0
2019 0 6 0 8.924999999999999 -10.709999999999999 -41.055 0 0 0
2023 0 6 0 9.817499999999999 -9.817499999999999 -40.1625 0 0 0
2025 0 6 0 10.709999999999999 -10.709999999999999 -42.839999999999996 0 0 0
2027 0 6 0 12.495 -10.709999999999999 -41.055 0 0 0
2029 0 6 0 11.6025 -9.817499999999999 -41.9475 0 0 0
2031 0 6 0 13.3875 -9.817499999999999 -40.1625 0 0 0
2033 0 6 0 14.28 -10.709999999999999 -42.839999999999996 0 0 0
2035 0 6 0 16.064999999999998 -10.709999999999999 -41.055 0 0 0
2037 0 6 0 15.1725 -9.817499999999999 -41.9475 0 0 0
2039 0 6 0 16.9575 -9.817499999999999 -40.1625 0 0 0
2660 0 6 0 8.924999999999999 -16.064999999999998 -39.269999999999996 0 0 0
2665 0 6 0 10.709999999999999 -17.849999999999998 -39.269999999999996 0 0 0
2668 0 6 0 12.495 -16.064999999999998 -39.269999999999996 0 0 0
2673 0 6 0 14.28 -17.849999999999998 -39.269999999999996 0 0 0
2676 0 6 0 16.064999999999998 -16.064999999999998 -39.269999999999996 0 0 0
2740 0 6 0 8.924999999999999 -12.495 -39.269999999999996 0 0 0
2745 0 6 0 10.709999999999999 -14.28 -39.269999999999996 0 0 0
2748 0 6 0 12.495 -12.495 -39.269999999999996 0 0 0
2753 0 6 0 14.28 -14.28 -39.269999999999996 0 0 0
2756 0 6 0 16.064999999999998 -12.495 -39.269999999999996 0 0 0
2825 0 6 0 10.709999999999999 -10.709999999999999 -39.269999999999996 0 0 0
2833 0 6 0 14.28 -10.709999999999999 -39.269999999999996 0 0 0
1962 0 6 0 -17.849999999999998 -8.924999999999999 -41.055 0 0 0
1964 0 6 0 -16.064999999999998 -8.924999999999999 -42.839999999999996 0 0 0
1966 0 6 0 -16.9575 -8.032499999999999 -40.1625 0 0 0
1968 0 6 0 -15.1725 -8.032499999999999 -41.9475 0 0 0
1970 0 6 0 -14.28 -8.924999999999999 -41.055 0 0 0
1972 0 6 0 -12.495 -8.924999999999999 -42.839999999999996 0 0 0
1974 0 6 0 -13.3875 -8.032499999999999 -40.1625 0 0 0
1976 0 6 0 -11.6025 -8.032499999999999 -41.9475 0 0 0
1978 0 6 0 -10.709999999999999 -8.924999999999999 -41.055 0 0 0
1982 0 6 0 -9.817499999999999 -8.032499999999999 -40.1625 0 0 0
2041 0 6 0 -17.849999999999998 -7.14 -42.839999999999996 0 0 0
2042 0 6 0 -17.849999999999998 -5.3549999999999995 -41.055 0 0 0
2043 0 6 0 -16.064999999999998 -7.14 -41.055 0 0 0
2044 0 6 0 -16.064999999999998 -5.3549999999999995 -42.839999999999996 0 0 0
2045 0 6 0 -16.9575 -6.2475 -41.9475 0 0 0
2046 0 6 0 -16.9575 -4.4624999999999995 -40.1625 0 0 0
2047 0 6 0 -15.1725 -6.2475 -40.1625 0 0 0
2048 0 6 0 -15.1725 -4.4624999999999995 -41.9475 0 0 0
2049 0 6 0 -14.28 -7.14 -42.839999999999996 0 0 0
2050 0 6 0 -14.28 -5.3549999999999995 -41.055 0 0 0
2051 0 6 0 -12.495 -7.14 -41.055 0 0 0
2052 0 6 0 -12.495 -5.3549999999999995 -42.839999999999996 0 0 0
2053 0 6 0 -13.3875 -6.2475 -41.9475 0 0 0
2054 0 6 0 -13.3875 -4.4624999999999995 -40.1625 0 0 0
2055 0 6 0 -11.6025 -6.2475 -40.1625 0 0 0
2056 0 6 0 -11.6025 -4.4624999999999995 -41.9475 0 0 0
2057 0 6 0 -10.709999999999999 -7.14 -42.839999999999996 0 0 0
2058 0 6 0 -10.709999999999999 -5.3549999999999995 -41.055 0 0 0
2061 0 6 0 -9.817499999999999 -6.2475 -41.9475 0 0 0
2062 0 6 0 -9.817499999999999 -4.4624999999999995 -40.1625 0 0 0
2121 0 6 0 -17.849999999999998 -3.57 -42.839999999999996 0 0 0
2122 0 6 0 -17.849999999999998 -1.785 -41.055 0 0 0
2123 0 6 0 -16.064999999999998 -3.57 -41.055 0 0 0
2124 0 6 0 -16.064999999999998 -1.785 -42.839999999999996 0 0 0
2125 0 6 0 -16.9575 -2.6774999999999998 -41.9475 0 0 0
2126 0 6 0 -16.9575 -0.8925 -40.1625 0 0 0
2127 0 6 0 -15.1725 -2.6774999999999998 -40.1625 0 0 0
2128 0 6 0 -15.1725 -0.8925 -41.9475 0 0 0
2129 0 6 0 -14.28 -3.57 -42.839999999999996 0 0 0
2130 0 6 0 -14.28 -1.785 -41.055 0 0 0
2131 0 6 0 -12.495 -3.57 -41.055 0 0 0
2132 0 6 0 -12.495 -1.785 -42.839999999999996 0 0 0
2133 0 6 0 -13.3875 -2.6774999999999998 -41.9475 0 0 0
2134 0 6 0 -13.3875 -0.8925 -40.1625 0 0 0
2135 0 6 0 -11.6025 -2.6774999999999998 -40.1625 0 0 0
2136 0 6 0 -11.6025 -0.8925 -41.9475 0 0 0
2137 0 6 0 -10.709999999999999 -3.57 -42.839999999999996 0 0 0
2138 0 6 0 -10.709999999999999 -1.785 -41.055 0 0 0
2141 0 6 0 -9.817499999999999 -2.6774999999999998 -41.9475 0 0 0
2142 0 6 0 -9.817499999999999 -0.8925 -40.1625 0 0 0
2764 0 6 0 -16.064999999999998 -8.924999999999999 -39.269999999999996 0 0 0
2772 0 6 0 -12.495 -8.924999999999999 -39.269999999999996 0 0 0
2841 0 6 0 -17.849999999999998 -7.14 -39.269999999999996 0 0 0
2844 0 6 0 -16.064999999999998 -5.3549999999999995 -39.269999999999996 0 0 0
2849 0 6 0 -14.28 -7.14 -39.269999999999996 0 0 0
2852 0 6 0 -12.495 -5.3549999999999995 -39.269999999999996 0 0 0
2857 0 6 0 -10.709999999999999 -7.14 -39.269999999999996 0 0 0
2921 0 6 0 -17.849999999999998 -3.57 -39.269999999999996 0 0 0
2924 0 6 0 -16.064999999999998 -1.785 -39.269999999999996 0 0 0
2929 0 6 0 -14.28 -3.57 -39.269999999999996 0 0 0
2932 0 6 0 -12.495 -1.785 -39.269999999999996 0 0 0
2937 0 6 0 -10.709999999999999 -3.57 -39.269999999999996 0 0 0
1980 0 6 0 -8.924999999999999 -8.924999999999999 -42.839999999999996 0 0 0
1984 0 6 0 -8.032499999999999 -8.032499999999999 -41.9475 0 0 0
1986 0 6 0 -7.14 -8.924999999999999 -41.055 0 0 0
1988 0 6 0 -5.3549999999999995 -8.924999999999999 -42.839999999999996 0 0 0
1990 0 6 0 -6.2475 -8.032499999999999 -40.1625 0 0 0
1992 0 6 0 -4.4624999999999995 -8.032499999999999 -41.9475 0 0 0
1994 0 6 0 -3.57 -8.924999999999999 -41.055 0 0 0
1996 0 6 0 -1.785 -8.924999999999999 -42.839999999999996 0 0 0
1998 0 6 0 -2.6774999999999998 -8.032499999999999 -40.1625 0 0 0
2000 0 6 0 -0.8925 -8.032499999999999 -41.9475 0 0 0
2059 0 6 0 -8.924999999999999 -7.14 -41.055 0 0 0
2060 0 6 0 -8.924999999999999 -5.3549999999999995 -42.839999999999996 0 0 0
2063 0 6 0 -8.032499999999999 -6.2475 -40.1625 0 0 0
2064 0 6 0 -8.032499999999999 -4.4624999999999995 -41.9475 0 0 0
2065 0 6 0 -7.14 -7.14 -42.839999999999996 0 0 0
2066 0 6 0 -7.14 -5.3549999999999995 -41.055 0 0 0
2067 0 6 0 -5.3549999999999995 -7.14 -41.055 0 0 0
2068 0 6 0 -5.3549999999999995 -5.3549999999999995 -42.839999999999996 0 0 0
2069 0 6 0 -6.2475 -6.2475 -41.9475 0 0 0
2070 0 6 0 -6.2475 -4.4624999999999995 -40.1625 0 0 0
2071 0 6 0 -4.4624999999999995 -6.2475 -40.1625 0 0 0
2072 0 6 0 -4.4624999999999995 -4.4624999999999995 -41.9475 0 0 0
2073 0 6 0 -3.57 -7.14 -42.839999999999996 0 0 0
2074 0 6 0 -3.57 -5.3549999999999995 -41.055 0 0 0
2075 0 6 0 -1.785 -7.14 -41.055 0 0 0
2076 0 6 0 -1.785 -5.3549999999999995 -42.839999999999996 0 0 0
2077 0 6 0 -2.6774999999999998 -6.2475 -41.9475 0 0 0
2078 0 6 0 -2.6774999999999998 -4.4624999999999995 -40.1625 0 0 0
2079 0 6 0 -0.8925 -6.2475 -40.1625 0 0 0
2080 0 6 0 -0.8925 -4.4624999999999995 -41.9475 0 0 0
2139 0 6 0 -8.924999999999999 -3.57 -41.055 0 0 0
2140 0 6 0 -8.924999999999999 -1.785 -42.839999999999996 0 0 0
2143 0 6 0 -8.032499999999999 -2.6774999999999998 -40.1625 0 0 0
2144 0 6 0 -8.032499999999999 -0.8925 -41.9475 0 0 0
2145 0 6 0 -7.14 -3.57 -42.839999999999996 0 0 0
2146 0 6 0 -7.14 -1.785 -41.055 0 0 0
2147 0 6 0 -5.3549999999999995 -3.57 -41.055 0 0 0
2148 0 6 0 -5.3549999999999995 -1.785 -42.839999999999996 0 0 0
2149 0 6 0 -6.2475 -2.6774999999999998 -41.9475 0 0 0
2150 0 6 0 -6.2475 -0.8925 -40.1625 0 0 0
2151 0 6 0 -4.4624999999999995 -2.6774999999999998 -40.1625 0 0 0
2152 0 6 0 -4.4624999999999995 -0.8925 -41.9475 0 0 0
2153 0 6 0 -3.57 -3.57 -42.839999999999996 0 0 0
2154 0 6 0 -3.57 -1.785 -41.055 0 0 0
2155 0 6 0 -1.785 -3.57 -41.055 0 0 0
2156 0 6 0 -1.785 -1.785 -42.839999999999996 0 0 0
2157 0 6 0 -2.6774999999999998 -2.6774999999999998 -41.9475 0 0 0
2158 0 6 0 -2.6774999999999998 -0.8925 -40.1625 0 0 0
2159 0 6 0 -0.8925 -2.6774999999999998 -40.1625 0 0 0
2160 0 6 0 -0.8925 -0.8925 -41.9475 0 0 0
2780 0 6 0 -8.924999999999999 -8.924999999999999 -39.269999999999996 0 0 0
2788 0 6 0 -5.3549999999999995 -8.924999999999999 -39.269999999999996 0 0 0
2796 0 6 0 -1.785 -8.924999999999999 -39.269999999999996 0 0 0
2860 0 6 0 -8.924999999999999 -5.3549999999999995 -39.269999999999996 0 0 0
2865 0 6 0 -7.14 -7.14 -39.269999999999996 0 0 0
2868 0 6 0 -5.3549999999999995 -5.3549999999999995 -39.269999999999996 0 0 0
2873 0 6 0 -3.57 -7.14 -39.269999999999996 0 0 0
2876 0 6 0 -1.785 -5.3549999999999995 -39.269999999999996 0 0 0
2940 0 6 0 -8.924999999999999 -1.785 -39.269999999999996 0 0 0
2945 0 6 0 -7.14 -3.57 -39.269999999999996 0 0 0
2948 0 6 0 -5.3549999999999995 -1.785 -39.269999999999996 0 0 0
2953 0 6 0 -3.57 -3.57 -39.269999999999996 0 0 0
2956 0 6 0 -1.785 -1.785 -39.269999999999996 0 0 0
2002 0 6 0 0 -8.924999999999999 -41.055 0 0 0
2004 0 6 0 1.785 -8.924999999999999 -42.839999999999996 0 0 0
2006 0 6 0 0.8925 -8.032499999999999 -40.1625 0 0 0
2008 0 6 0 2.6774999999999998 -8.032499999999999 -41.9475 0 0 0
2010 0 6 0 3.57 -8.924999999999999 -41.055 0 0 0
2012 0 6 0 5.3549999999999995 -8.924999999999999 -42.839999999999996 0 0 0
2014 0 6 0 4.4624999999999995 -8.032499999999999 -40.1625 0 0 0
2016 0 6 0 6.2475 -8.032499999999999 -41.9475 0 0 0
2018 0 6 0 7.14 -8.924999999999999 -41.055 0 0 0
2022 0 6 0 8.032499999999999 -8.032499999999999 -40.1625 0 0 0
2081 0 6 0 0 -7.14 -42.839999999999996 0 0 0
2082 0 6 0 0 -5.3549999999999995 -41.055 0 0 0
2083 0 6 0 1.785 -7.14 -41.055 0 0 0
2084 0 6 0 1.785 -5.3549999999999995 -42.839999999999996 0 0 0
2085 0 6 0 0.8925 -6.2475 -41.9475 0 0 0
2086 0 6 0 0.8925 -4.4624999999999995 -40.1625 0 0 0
2087 0 6 0 2.6774999999999998 -6.2475 -40.1625 0 0 0
2088 0 6 0 2.6774999999999998 -4.4624999999999995 -41.9475 0 0 0
2089 0 6 0 3.57 -7.14 -42.839999999999996 0 0 0
2090 0 6 0 3.57 -5.3549999999999995 -41.055 0 0 0
2091 0 6 0 5.3549999999999995 -7.14 -41.055 0 0 0
2092 0 6 0 5.3549999999999995 -5.3549999999999995 -42.839999999999996 0 0 0
2093 0 6 0 4.4624999999999995 -6.2475 -41.9475 0 0 0
2094 0 6 0 4.4624999999999995 -4.4624999999999995 -40.1625 0 0 0
2095 0 6 0 6.2475 -6.2475 -40.1625 0 0 0
2096 0 6 0 6.2475 -4.4624999999999995 -41.9475 0 0 0
2097 0 6 0 7.14 -7.14 -42.839999999999996 0 0 0
2098 0 6 0 7.14 -5.3549999999999995 -41.055 0 0 0
2101 0 6 0 8.032499999999999 -6.2475 -41.9475 0 0 0
2102 0 6 0 8.032499999999999 -4.4624999999999995 -40.1625 0 0 0
2161 0 6 0 0 -3.57 -42.839999999999996 0 0 0
2162 0 6 0 0 -1.785 -41.055 0 0 0
2163 0 6 0 1.785 -3.57 -41.055 0 0 0
2164 0 6 0 1.785 -1.785 -42.839999999999996 0 0 0
2165 0 6 0 0.8925 -2.6774999999999998 -41.9475 0 0 0
2166 0 6 0 0.8925 -0.8925 -40.1625 0 0 0
2167 0 6 0 2.6774999999999998 -2.6774999999999998 -40.1625 0 0 0
2168 0 6 0 2.6774999999999998 -0.8925 -41.9475 0 0 0
2169 0 6 0 3.57 -3.57 -42.839999999999996 0 0 0
2170 0 6 0 3.57 -1.785 -41.055 0 0 0
2171 0 6 0 5.3549999999999995 -3.57 -41.055 0 0 0
2172 0 6 0 5.3549999999999995 -1.785 -42.839999999999996 0 0 0
2173 0 6 0 4.4624999999999995 -2.6774999999999998 -41.9475 0 0 0
2174 0 6 0 4.4624999999999995 -0.8925 -40.1625 0 0 0
2175 0 6 0 6.2475 -2.6774999999999998 -40.1625 0 0 0
2176 0 6 0 6.2475 -0.8925 -41.9475 0 0 0
2177 0 6 0 7.14 -3.57 -42.839999999999996 0 0 0
2178 0 6 0 7.14 -1.785 -41.055 0 0 0
2181 0 6 0 8.032499999999999 -2.6774999999999998 -41.9475 0 0 0
2182 0 6 0 8.032499999999999 -0.8925 -40.1625 0 0 0
2804 0 6 0 1.785 -8.924999999999999 -39.269999999999996 0 0 0
2812 0 6 0 5.3549999999999995 -8.924999999999999 -39.269999999999996 0 0 0
2881 0 6 0 0 -7.14 -39.269999999999996 0 0 0
2884 0 6 0 1.785 -5.3549999999999995 -39.269999999999996 0 0 0
2889 0 6 0 3.57 -7.14 -39.269999999999996 0 0 0
2892 0 6 0 5.3549999999999995 -5.3549999999999995 -39.269999999999996 0 0 0
2897 0 6 0 7.14 -7.14 -39.269999999999996 0 0 0
2961 0 6 0 0 -3.57 -39.269999999999996 0 0 0
2964 0 6 0 1.785 -1.785 -39.269999999999996 0 0 0
2969 0 6 0 3.57 -3.57 -39.269999999999996 0 0 0
2972 0 6 0 5.3549999999999995 -1.785 -39.269999999999996 0 0 0
2977 0 6 0 7.14 -3.57 -39.269999999999996 0 0 0
2020 0 6 0 8.924999999999999 -8.924999999999999 -42.839999999999996 0 0 0
2024 0 6 0 9.817499999999999 -8.032499999999999 -41.9475 0 0 0
2026 0 6 0 10.709999999999999 -8.924999999999999 -41.055 0 0 0
2028 0 6 0 12.495 -8.924999999999999 -42.839999999999996 0 0 0
2030 0 6 0 11.6025 -8.032499999999999 -40.1625 0 0 0
2032 0 6 0 13.3875 -8.032499999999999 -41.9475 0 0 0
2034 0 6 0 14.28 -8.924999999999999 -41.055 0 0 0
2036 0 6 0 16.064999999999998 -8.924999999999999 -42.839999999999996 0 0 0
2038 0 6 0 15.1725 -8.032499999999999 -40.1625 0 0 0
2040 0 6 0 16.9575 -8.032499999999999 -41.9475 0 0 0
2099 0 6 0 8.924999999999999 -7.14 -41.055 0 0 0
2100 0 6 0 8.924999999999999 -5.3549999999999995 -42.839999999999996 0 0 0
2103 0 6 0 9.817499999999999 -6.2475 -40.1625 0 0 0
2104 0 6 0 9.817499999999999 -4.4624999999999995 -41.9475 0 0 0
2105 0 6 0 10.709999999999999 -7.14 -42.839999999999996 0 0 0
2106 0 6 0 10.709999999999999 -5.3549999999999995 -41.055 0 0 0
2107 0 6 0 12.495 -7.14 -41.055 0 0 0
2108 0 6 0 12.495 -5.3549999999999995 -42.839999999999996 0 0 0
2109 0 6 0 11.6025 -6.2475 -41.9475 0 0 0
2110 0 6 0 11.6025 -4.4624999999999995 -40.1625 0 0 0
2111 0 6 0 13.3875 -6.2475 -40.1625 0 0 0
2112 0 6 0 13.3875 -4.4624999999999995 -41.9475 0 0 0
2113 0 6 0 14.28 -7.14 -42.839999999999996 0 0 0
2114 0 6 0 14.28 -5.3549999999999995 -41.055 0 0 0
2115 0 6 0 16.064999999999998 -7.14 -41.055 0 0 0
2116 0 6 0 16.064999999999998 -5.3549999999999995 -42.839999999999996 0 0 0
2117 0 6 0 15.1725 -6.2475 -41.9475 0 0 0
2118 0 6 0 15.1725 -4.4624999999999995 -40.1625 0 0 0
2119 0 6 0 16.9575 -6.2475 -40.1625 0 0 0
2120 0 6 0 16.9575 -4.4624999999999995 -41.9475 0 0 0
2179 0 6 0 8.924999999999999 -3.57 -41.055 0 0 0
2180 0 6 0 8.924999999999999 -1.785 -42.839999999999996 0 0 0
2183 0 6 0 9.817499999999999 -2.6774999999999998 -40.1625 0 0 0
2184 0 6 0 9.817499999999999 -0.8925 -41.9475 0 0 0
2185 0 6 0 10.709999999999999 -3.57 -42.839999999999996 0 0 0
2186 0 6 0 10.709999999999999 -1.785 -41.055 0 0 0
2187 0 6 0 12.495 -3.57 -41.055 0 0 0
2188 0 6 0 12.495 -1.785 -42.839999999999996 0 0 0
2189 0 6 0 11.6025 -2.6774999999999998 -41.9475 0 0 0
2190 0 6 0 11.6025 -0.8925 -40.1625 0 0 0
2191 0 6 0 13.3875 -2.6774999999999998 -40.1625 0 0 0
2192 0 6 0 13.3875 -0.8925 -41.9475 0 0 0
2193 0 6 0 14.28 -3.57 -42.839999999999996 0 0 0
2194 0 6 0 14.28 -1.785 -41.055 0 0 0
2195 0 6 0 16.064999999999998 -3.57 -41.055 0 0 0
2196 0 6 0 16.064999999999998 -1.785 -42.839999999999996 0 0 0
2197 0 6 0 15.1725 -2.6774999999999998 -41.9475 0 0 0
2198 0 6 0 15.1725 -0.8925 -40.1625 0 0 0
2199 0 6 0 16.9575 -2.6774999999999998 -40.1625 0 0 0
2200 0 6 0 16.9575 -0.8925 -41.9475 0 0 0
2820 0 6 0 8.924999999999999 -8.924999999999999 -39.269999999999996 0 0 0
2828 0 6 0 12.495 -8.924999999999999 -39.269999999999996 0 0 0
2836 0 6 0 16.064999999999998 -8.924999999999999 -39.269999999999996 0 0 0
2900 0 6 0 8.924999999999999 -5.3549999999999995 -39.269999999999996 0 0 0
2905 0 6 0 10.709999999999999 -7.14 -39.269999999999996 0 0 0
2908 0 6 0 12.495 -5.3549999999999995 -39.269999999999996 0 0 0
2913 0 6 0 14.28 -7.14 -39.269999999999996 0 0 0
2916 0 6 0 16.064999999999998 -5.3549999999999995 -39.269999999999996 0 0 0
2980 0 6 0 8.924999999999999 -1.785 -39.269999999999996 0 0 0
2985 0 6 0 10.709999999999999 -3.57 -39.269999999999996 0 0 0
2988 0 6 0 12.495 -1.785 -39.269999999999996 0 0 0
2993 0 6 0 14.28 -3.57 -39.269999999999996 0 0 0
2996 0 6 0 16.064999999999998 -1.785 -39.269999999999996 0 0 0
2201 0 6 0 -17.849999999999998 0 -42.839999999999996 0 0 0
2202 0 6 0 -17.849999999999998 1.785 -41.055 0 0 0
2203 0 6 0 -16.064999999999998 0 -41.055 0 0 0
2204 0 6 0 -16.064999999999998 1.785 -42.839999999999996 0 0 0
2205 0 6 0 -16.9575 0.8925 -41.9475 0 0 0
2206 0 6 0 -16.9575 2.6774999999999998 -40.1625 0 0 0
2207 0 6 0 -15.1725 0.8925 -40.1625 0 0 0
2208 0 6 0 -15.1725 2.6774999999999998 -41.9475 0 0 0
2209 0 6 0 -14.28 0 -42.839999999999996 0 0 0
2210 0 6 0 -14.28 1.785 -41.055 0 0 0
2211 0 6 0 -12.495 0 -41.055 0 0 0
2212 0 6 0 -12.495 1.785 -42.839999999999996 0 0 0
2213 0 6 0 -13.3875 0.8925 -41.9475 0 0 0
2214 0 6 0 -13.3875 2.6774999999999998 -40.1625 0 0 0
2215 0 6 0 -11.6025 0.8925 -40.1625 0 0 0
2216 0 6 0 -11.6025 2.6774999999999998 -41.9475 0 0 0
2217 0 6 0 -10.709999999999999 0 -42.839999999999996 0 0 0
2218 0 6 0 -10.709999999999999 1.785 -41.055 0 0 0
2221 0 6 0 -9.817499999999999 0.8925 -41.9475 0 0 0
2222 0 6 0 -9.817499999999999 2.6774999999999998 -40.1625 0 0 0
2281 0 6 0 -17.849999999999998 3.57 -42.839999999999996 0 0 0
2282 0 6 0 -17.849999999999998 5.3549999999999995 -41.055 0 0 0
2283 0 6 0 -16.064999999999998 3.57 -41.055 0 0 0
2284 0 6 0 -16.064999999999998 5.3549999999999995 -42.839999999999996 0 0 0
2285 0 6 0 -16.9575 4.4624999999999995 -41.9475 0 0 0
2286 0 6 0 -16.9575 6.2475 -40.1625 0 0 0
2287 0 6 0 -15.1725 4.4624999999999995 -40.1625 0 0 0
2288 0 6 0 -15.1725 6.2475 -41.9475 0 0 0
2289 0 6 0 -14.28 3.57 -42.839999999999996 0 0 0
2290 0 6 0 -14.28 5.3549999999999995 -41.055 0 0 0
2291 0 6 0 -12.495 3.57 -41.055 0 0 0
2292 0 6 0 -12.495 5.3549999999999995 -42.839999999999996 0 0 0
2293 0 6 0 -13.3875 4.4624999999999995 -41.9475 0 0 0