LAMMPS data file via write_data, version 29 Oct 2020, timestep = 10000

7314 atoms
4 atom types
4878 bonds
2 bond types
2451 angles
2 angle types

-12.68867384606453 74.80867384605978 xlo xhi
-14.582891282023224 14.582891282023224 ylo yhi
-14.582891282023224 14.582891282023224 zlo zhi

Masses

1 15.999
2 1.008
3 12.011
4 1.008

Pair Coeffs # lj/cut/tip4p/long

1 0.21084 3.1668
2 0 0
3 0.066 3.5
4 0.03 2.5

Bond Coeffs # harmonic

1 340 1.09
2 600 0.9572

Angle Coeffs # harmonic

1 33 107.8
2 75 104.52

Atoms # full

5515 1837 2 0.5897 -10.33621437749801 -9.7899047114767 -8.574914674204464 -1 1 0
5514 1837 2 0.5897 -9.348044915069366 -10.763626217554467 -9.180957987801445 -1 1 0
5513 1837 1 -1.1794 -10.055592037867362 -10.704341935895048 -8.539009424466387 -1 1 0
308 103 2 0.5897 -6.5275641736012515 14.431427044827412 -12.27135612010036 2 2 -3
307 103 1 -1.1794 -7.126700454436381 13.750084038918592 -12.5763804081246 2 2 -3
309 103 2 0.5897 -7.645949264489804 14.175123112525519 -13.258989019636697 2 2 -3
5345 1781 1 -1.1794 -12.265608515460364 -12.228180633679118 -9.578857173699065 0 3 4
1769 590 2 0.5897 -10.086838407821888 -13.92802892576095 -8.24686658805279 0 0 -2
4252 1417 2 0.5897 -8.1884870252964 -14.508838509658299 -9.367490261868978 1 4 -5
4251 1417 1 -1.1794 -8.09384393719659 -13.812530925171048 -8.71754348635798 1 4 -5
1770 590 2 0.5897 -11.454271511806636 -13.52726233009575 -8.758147762739473 0 0 -2
4253 1417 2 0.5897 -7.949456808797499 -13.019869256071381 -9.234333722223422 1 4 -5
5347 1781 2 0.5897 -11.53853148772218 -11.659319873601284 -9.325888457597815 0 3 4
6834 2277 2 0.5897 -7.053727049398309 -13.972073275949544 -7.154895776374828 1 -2 1
5290 1762 2 0.5897 -6.841391480298297 -11.438138846299426 -13.055317163648402 1 0 -1
218 73 2 0.5897 -7.691733043720283 -11.191434486429621 -11.02036441147256 -1 -1 0
217 73 1 -1.1794 -7.805690932704491 -11.315303865754947 -10.078077713866222 -1 -1 0
3242 1080 2 0.5897 -11.765549741357953 12.839606736241745 -11.959703222500734 -1 -3 1
2628 876 1 -1.1794 6.625371671899961 13.09807319818406 -2.3573462431308547 2 0 3
5846 1948 1 -1.1794 2.6665623309044735 0.751488197474455 -13.581881213681235 0 -3 -3
3173 1057 2 0.5897 -11.475533958553914 1.6827728467460756 -14.261074365116682 0 -7 3
6028 2008 2 0.5897 9.025172862231313 -5.830815948912345 -13.301132083904875 1 2 5
2470 823 2 0.5897 -12.451830588772243 0.019897030431456096 -12.252775511861627 1 0 2
6219 2072 2 0.5897 -12.201069645819727 -10.380360129084261 -13.312691991284446 2 2 -3
219 73 2 0.5897 -6.992983440241891 -10.987583282959394 -9.69292716794181 -1 -1 0
5289 1762 2 0.5897 -5.3783832883625164 -11.050830441697896 -13.093976588812943 1 0 -1
5288 1762 1 -1.1794 -6.1331814954937975 -11.099870447317521 -12.507370272871787 1 0 -1
2705 901 2 0.5897 -2.355499382982731 -10.85109570147315 -9.78513519453903 1 0 5
2704 901 2 0.5897 -3.0046636393739234 -11.018891638879317 -11.142458297507307 1 0 5
2703 901 1 -1.1794 -2.97163209321675 -10.432724885515256 -10.386449308389627 1 0 5
1610 537 2 0.5897 -2.0656009264640205 -8.94676298688423 -10.689950926432951 -2 4 2
5408 1802 1 -1.1794 -2.6269609389119744 -11.78073359485315 -12.92125606312583 1 -2 6
315 105 2 0.5897 -4.496422416206423 -10.050384102536803 -9.37938295514855 -1 -2 1
5409 1802 2 0.5897 -3.173693700250623 -11.216061769245858 -13.467577532755763 1 -2 6
5410 1802 2 0.5897 -2.8889846441421656 -12.670386973377342 -13.158099448381451 1 -2 6
314 105 2 0.5897 -4.967297867507939 -9.884781594729985 -7.950135685838824 -1 -2 1
2930 976 2 0.5897 -3.4396292306586926 -13.448903848975453 -7.796846487203383 0 -8 3
7156 2384 2 0.5897 -1.9272255120427533 -11.734131620766243 -7.983215408696464 2 3 0
313 105 1 -1.1794 -5.288096819695827 -9.961855523441635 -8.84867902934409 -1 -2 1
4530 1510 1 -1.1794 -4.997228765414889 -13.817502311917705 -12.036589450744515 1 -2 1
4531 1510 2 0.5897 -4.933328855453502 -12.862710452747429 -12.013721569077067 1 -2 1
4532 1510 2 0.5897 -4.762271654348948 -14.095024135324907 -11.151144055948324 1 -2 1
3044 1014 2 0.5897 -12.28743177260855 13.841301716472385 -8.921602044295177 2 0 2
7154 2384 1 -1.1794 -1.2055840994260283 -11.268762625835105 -8.40618286654041 2 3 0
7155 2384 2 0.5897 -1.1752388914405194 -10.420337914024008 -7.964036442041821 2 3 0
6985 2327 2 0.5897 -0.7959014592009509 -11.48252845685249 -13.704289539105247 0 -2 2
1450 484 1 -1.1794 -1.0656008705813247 -8.614129597519138 -7.652282772290901 -1 1 2
3285 1095 1 -1.1794 1.0287158162509196 -8.904324376787633 -13.738838487576917 2 -1 2
4441 1480 2 0.5897 2.945558701375953 -8.653218875317865 -12.580997333471005 0 -2 5
6474 2157 2 0.5897 0.09433295356828354 -12.169303949945629 -9.142868627497588 1 -1 6
6473 2157 1 -1.1794 0.5847917008898829 -12.901309850808818 -9.516834052195707 1 -1 6
3229 1076 2 0.5897 2.5270345720957406 -12.885428450189492 -11.924572200189289 0 -1 3
810 270 2 0.5897 1.7727286110837768 -13.442361664340952 -8.188122480715142 1 5 -1
3230 1076 2 0.5897 1.3609188421546217 -12.416554033306262 -11.080637159787162 0 -1 3
3228 1076 1 -1.1794 1.5751062265332365 -12.785919981999063 -11.937331257764505 0 -1 3
6984 2327 2 0.5897 0.5960853664615645 -12.019316436174016 -13.447134809809823 0 -2 2
809 270 2 0.5897 2.9226889011018615 -13.667700805762305 -7.229629097582202 1 5 -1
6813 2270 2 0.5897 4.453706568545321 -10.000760209018873 -11.624044653235668 1 0 2
808 270 1 -1.1794 2.2231054094346065 -14.127315194610743 -7.693924351802108 1 5 -1
6475 2157 2 0.5897 0.041992590273875856 -13.669488425926545 -9.339343833844625 1 -1 6
4839 1613 1 -1.1794 2.6737583251030603 -9.458632463169465 -7.849682598427251 1 -2 3
1569 523 2 0.5897 4.469326800671336 -7.114078776205917 -14.459810234161942 0 1 3
4440 1480 1 -1.1794 3.164425710034869 -8.814178926633955 -11.663159802911451 0 -2 5
4841 1613 2 0.5897 3.046470200051613 -10.340177690266323 -7.835676735540631 1 -2 3
58 20 1 -1.1794 -9.803861303661431 -14.447111120945966 -13.984319452161301 1 0 3
6814 2270 2 0.5897 4.97295402874596 -11.422232657184706 -11.582885263747347 1 0 2
1336 446 1 -1.1794 4.327304257416052 -13.093688099023073 -12.096114086227232 0 0 -1
1338 446 2 0.5897 4.242253333946918 -13.477101895068106 -12.969038209852984 0 0 -1
6812 2270 1 -1.1794 5.253170036732847 -10.517761782712885 -11.723041522285493 1 0 2
7268 2422 1 -1.1794 7.262968497559606 -10.857324973783252 -7.552664471198296 1 4 0
7269 2422 2 0.5897 6.967744828301559 -11.763114276087057 -7.459809561736933 1 4 0
6885 2294 2 0.5897 6.586038976473756 -13.866841949824712 -7.460337526661625 1 6 1
258 86 2 0.5897 7.092529829672601 -10.09242920133045 -9.345477896294229 -1 0 -3
257 86 2 0.5897 6.405770455563377 -9.914905802362542 -10.682917127870747 -1 0 -3
256 86 1 -1.1794 6.992258171103853 -9.473391318422298 -10.06864462666869 -1 0 -3
6886 2294 2 0.5897 6.777338350438252 -13.412524692059588 -8.891737089675233 1 6 1
6884 2294 1 -1.1794 6.144162258329133 -13.406611692202148 -8.173901438473864 1 6 1
1524 508 2 0.5897 5.551689279504226 -10.393061879191714 -13.821249585285722 0 -2 -2
6105 2034 2 0.5897 5.686067750034857 -8.645344649545734 -9.032450599760896 0 2 2
6106 2034 2 0.5897 5.721566499635581 -7.425616357775406 -8.136404801398468 0 2 2
7228 2408 2 0.5897 -1.1572685052247242 -1.9863895433413548 -14.42537417175914 0 0 3
2414 805 2 0.5897 -11.94159103429738 -8.550866650187539 -10.543316006960685 0 -1 2
108 36 2 0.5897 8.243648555854104 -7.96042563954714 -12.758076253781127 -1 1 3
2471 823 2 0.5897 -12.203122306790931 -1.4730986330660056 -12.284502129005485 1 0 2
2725 908 2 0.5897 -8.769751308666146 -12.921847663570599 -13.949061799562836 1 -1 3
106 36 1 -1.1794 7.764278020499457 -7.680605608236403 -13.53790820685678 -1 1 3
228 76 2 0.5897 7.672496669878441 -13.224852888877235 -11.583436393501112 0 0 4
226 76 1 -1.1794 7.354502889918021 -13.498316225351198 -10.723011965931597 0 0 4
4480 1493 2 0.5897 -11.911028801972998 -4.364762437435913 -10.074857942216878 0 3 2
1287 429 2 0.5897 -6.922662483402475 2.2266176682196788 -0.4796194991905847 1 1 -5
2060 687 2 0.5897 3.0282220502518706 -1.0532197435348087 -13.33903971273943 1 -3 1
2724 908 1 -1.1794 -8.021959989029288 -12.333821728748472 -14.055203118257708 1 -1 3
1220 407 2 0.5897 -0.6291912415581631 8.981465878296783 -14.343654177860302 0 0 3
1258 420 1 -1.1794 -12.627583772075878 4.830980706605525 -6.899942169210248 1 -3 -1
7062 2353 2 0.5897 -9.686621820770826 10.838538347510058 -14.530151275019172 2 1 4
5944 1980 2 0.5897 5.597746170064165 14.544603492820547 -5.757605433071407 1 0 -2
3753 1251 1 -1.1794 -10.680620299389613 -8.319124559139361 -11.941451765647056 1 3 0
3754 1251 2 0.5897 -10.710298481745788 -7.4521819709614405 -12.346127309988985 1 3 0
3755 1251 2 0.5897 -10.022338821269853 -8.239334405472427 -11.251139405138636 1 3 0
544 182 1 -1.1794 -9.63082232627745 -7.682275166117141 -8.70742574592002 1 0 1
545 182 2 0.5897 -9.674028972944493 -6.736296370167135 -8.847031811642026 1 0 1
1107 369 2 0.5897 -6.810296230629878 -7.669317270791131 -10.29978600608497 1 4 0
17 6 2 0.5897 -12.379268566381274 -5.953456429829026 -12.72540885962748 -1 2 -2
546 182 2 0.5897 -8.762032449455257 -7.931891866242258 -9.02227337377547 1 0 1
16 6 1 -1.1794 -11.499531826140467 -6.0693306657843955 -13.08439210213583 -1 2 -2
6567 2188 2 0.5897 -10.893520847182819 -3.939195956425915 -12.743389049865314 1 1 3
441 147 2 0.5897 -8.568631301015726 -5.638640212170365 -12.630480375636541 1 4 3
6446 2148 1 -1.1794 -10.029737034537714 -5.0952780187512605 -9.6836536351034 1 5 -2
6448 2148 2 0.5897 -9.466207783147771 -5.232153112970026 -10.44518708868133 1 5 -2
6447 2148 2 0.5897 -9.863355077583545 -4.18979828161501 -9.421631018647776 1 5 -2
439 147 1 -1.1794 -8.539738643772282 -5.047291634531126 -11.878345853147328 1 4 3
440 147 2 0.5897 -7.947148534768408 -4.345425970590749 -12.147518216415987 1 4 3
2253 751 2 0.5897 -11.770235407128828 11.468085155992846 -4.506330983279094 1 2 1
1390 464 1 -1.1794 -8.582099123554856 -9.020566021460686 -0.4118741102931781 0 -3 3
6195 2064 2 0.5897 3.474751906929722 5.6850606139226585 -0.4885197734473766 0 2 3
341 114 2 0.5897 -6.7919752999321945 -7.453344982966464 -12.633211881725249 1 -1 -2
1609 537 1 -1.1794 -1.8608040737745024 -8.016226449897065 -10.781563855010807 -2 4 2
1611 537 2 0.5897 -0.9220039194828834 -7.958490623435665 -10.603931966368785 -2 4 2
1105 369 1 -1.1794 -7.187617830783244 -7.949565293886894 -9.46592636233254 1 4 0
1106 369 2 0.5897 -6.7474849821088165 -8.776496163067675 -9.269201088237578 1 4 0
340 114 1 -1.1794 -6.18515077283706 -7.994374878212398 -12.12795096014835 1 -1 -2
342 114 2 0.5897 -6.433139251289991 -8.894426813494862 -12.33924285812648 1 -1 -2
5396 1798 1 -1.1794 -5.46126109618931 -4.474071473824403 -9.967251932460327 0 0 -1
5398 1798 2 0.5897 -5.625269714401936 -4.955009761815636 -9.156058360447956 0 0 -1
5397 1798 2 0.5897 -4.902660707577612 -5.056044529331211 -10.482529345749201 0 0 -1
6271 2089 2 0.5897 -3.1749643584973457 -6.852881417315374 -10.949243120477183 2 -4 -3
6270 2089 2 0.5897 -4.527216378842875 -7.2063709881628375 -11.530926591241256 2 -4 -3
6269 2089 1 -1.1794 -3.9989894576203997 -6.46271900045601 -11.24077087346454 2 -4 -3
860 287 2 0.5897 -6.2474219951259 -6.716840146611972 -8.508850653058735 -1 3 3
859 287 1 -1.1794 -5.805154123347545 -6.163965847150997 -7.864675403934771 -1 3 3
861 287 2 0.5897 -4.877014808641169 -6.376396569755941 -7.962976299342002 -1 3 3
888 296 2 0.5897 -2.7005974054770134 -6.0870704033022305 -8.472162657942574 -1 0 2
1394 465 2 0.5897 -4.159425968296356 -5.299465337915018 -12.708707929760946 -1 0 2
62 21 2 0.5897 -4.619758539563067 -2.9022310089721257 -13.120335999872895 0 4 2
5698 1898 2 0.5897 -1.8899374383490102 -8.235584787160478 -12.581005066458964 2 -1 2
886 296 1 -1.1794 -2.974135699722575 -6.592512592986328 -7.706697260815455 -1 0 2
6859 2285 2 0.5897 -6.381741871903408 -4.427633147645162 -6.977182876235932 1 -1 -4
6857 2285 1 -1.1794 -6.2933386784998735 -3.603694226312875 -6.498077502002897 1 -1 -4
5667 1888 2 0.5897 1.2593093343206934 -8.7695749202476 -8.937809349687392 2 -1 -1
5023 1673 2 0.5897 -1.095962957255977 -4.284678313938819 -13.684982786227778 2 5 -4
5696 1898 1 -1.1794 -1.7534515002731408 -8.340189240219093 -13.52263223733477 2 -1 2
3665 1221 2 0.5897 -1.8334278859281061 -3.8796827939806566 -9.921008587348167 2 0 3
1452 484 2 0.5897 -0.36196561301714497 -8.15475628866663 -8.110659063532683 -1 1 2
4442 1480 2 0.5897 2.4077025843414797 -8.489039769381618 -11.175418699123133 0 -2 5
5697 1898 2 0.5897 -0.8180155044065415 -8.5230514164618 -13.61068559494308 2 -1 2
1451 484 2 0.5897 -1.836525748103742 -8.061481019819679 -7.78070403110815 -1 1 2
3663 1221 1 -1.1794 -1.479436099229762 -4.727144662036375 -9.651322424580687 2 0 3
5666 1888 1 -1.1794 0.7873847363451854 -8.220017803474816 -9.563514131135898 2 -1 -1
507 169 2 0.5897 -0.8451238443426862 -6.630685172476181 -12.792827010682362 1 1 3
505 169 1 -1.1794 -0.789865573319711 -5.823186474276603 -12.281823468368069 1 1 3
3664 1221 2 0.5897 -1.2388845171599485 -5.158632407983572 -10.471191642446964 2 0 3
5668 1888 2 0.5897 0.9415552344735605 -7.3250907517852015 -9.260909549592675 2 -1 -1
506 169 2 0.5897 0.14663987779436702 -5.701715552189489 -12.1255072035292 1 1 3
868 290 1 -1.1794 1.0189737297408044 -5.564769093237479 -8.642084995682243 0 5 1
4294 1431 2 0.5897 2.916369695234581 -6.3471147129462535 -11.775508754254322 1 1 3
869 290 2 0.5897 1.6056560872745838 -4.8126238342549 -8.562608839802806 0 5 1
4295 1431 2 0.5897 2.250341492690328 -5.43625363929512 -12.784783748199608 1 1 3
870 290 2 0.5897 0.17865565271758715 -5.1872537385996855 -8.902057831060418 0 5 1
1772 591 2 0.5897 3.0236331025191383 -1.769085973128311 -11.438944313109142 0 -1 4
4293 1431 1 -1.1794 2.0608056830302655 -6.1139137783463955 -12.135869985187965 1 1 3
1546 516 1 -1.1794 3.1718653100620955 -3.9115796791886863 -9.010581488690987 0 3 3
1547 516 2 0.5897 2.929121090594946 -3.254790249664216 -9.663218778458468 0 3 3
1548 516 2 0.5897 3.5115761662811367 -4.645123617039881 -9.523165073327478 0 3 3
887 296 2 0.5897 -2.602114746970111 -6.120272209198782 -6.961833403154426 -1 0 2
1131 377 2 0.5897 7.005597456867621 0.21922972003827093 -14.329090223410981 1 -2 5
6104 2034 1 -1.1794 5.11857934535417 -8.038512761555923 -8.557114643456112 0 2 2
3609 1203 1 -1.1794 8.182542233518182 11.255727507218642 -0.298487747447635 0 -2 2
5897 1965 1 -1.1794 4.543217919103431 -6.070996954932014 -10.560809139719826 0 0 1
5898 1965 2 0.5897 4.902762503953539 -6.269769428625734 -11.425363026372825 0 0 1
5899 1965 2 0.5897 4.631877252033302 -6.888202055734526 -10.070348179279135 0 0 1
5773 1923 2 0.5897 6.411068875941993 -2.6657380885834625 -12.555155167576846 -1 1 2
6509 2169 1 -1.1794 5.385688671935717 -5.985580476197255 -13.25563761977277 2 2 2
6510 2169 2 0.5897 5.7998360602838135 -5.140632222318508 -13.080203871525587 2 2 2
5771 1923 1 -1.1794 5.877857950881799 -3.014835537699456 -13.269332775816908 -1 1 2
6511 2169 2 0.5897 6.114065962901561 -6.572013039431628 -13.460077572145478 2 2 2
3181 1060 2 0.5897 6.229311109186683 -5.0502174632135395 -9.862224715326018 0 4 6
3180 1060 1 -1.1794 7.075267260725558 -4.937317378184623 -9.428813260717801 0 4 6
3182 1060 2 0.5897 7.183622930351262 -3.9889584947680548 -9.357330102802587 0 4 6
4296 1432 1 -1.1794 7.21023362557525 -2.03808142574812 -9.039194813650859 1 3 1
4297 1432 2 0.5897 7.665400153098859 -1.7031200659842918 -8.266630039169092 1 3 1
3726 1242 1 -1.1794 -12.574424634692182 8.334628290224261 -3.664337904512776 0 -3 4
86 29 2 0.5897 6.78213562818227 -5.591187303767118 -7.601687338972027 -3 -1 3
875 292 2 0.5897 8.795260685901894 -5.8231155546655895 -9.579601791389342 0 7 4
5012 1670 1 -1.1794 7.49464939214456 14.518322704258406 -6.100225029126747 1 -2 0
7022 2340 1 -1.1794 -12.330040543170334 -8.461435596534361 -2.3436939977286233 3 -2 -4
4607 1535 2 0.5897 -1.469531868261362 13.53865139616678 -0.47845432278665545 1 0 3
6566 2188 1 -1.1794 -10.969699327076144 -3.0644536530677486 -12.362261355365971 1 1 3
6568 2188 2 0.5897 -10.192298108453784 -2.9742778446616263 -11.8111252741875 1 1 3
7124 2374 1 -1.1794 -12.198780857396004 -1.8362408178910299 -8.097620886699346 1 1 6
702 234 2 0.5897 -7.729288384914536 -1.6549678630915334 -10.904220215268364 0 -3 0
700 234 1 -1.1794 -8.650337926309765 -1.7729533956468633 -11.136555233091505 0 -3 0
3660 1220 1 -1.1794 -9.698984981228875 -2.5632532576303375 -8.680855706961244 1 5 -4
3661 1220 2 0.5897 -9.276205403168381 -2.365699414792856 -9.516596390702569 1 5 -4
3662 1220 2 0.5897 -9.305395227026292 -1.948578380375297 -8.061586658109206 1 5 -4
37 13 1 -1.1794 -12.204175551392819 1.0735310465223202 -7.307212861223403 1 -1 -3
7125 2374 2 0.5897 -11.30899341362554 -2.144044653560072 -8.27015428372999 1 1 6
3172 1057 2 0.5897 -10.873279281789157 1.5820191473286984 -12.87578190697606 0 -7 3
701 234 2 0.5897 -8.967350793000412 -0.8881577839491194 -11.317861704476794 0 -3 0
2715 905 1 -1.1794 -7.69785739177776 -1.4084470399480833 -6.98313148528875 0 4 0
5707 1901 2 0.5897 -9.112369923730942 1.5508146615347322 -11.926235567304328 -1 2 -1
1830 610 2 0.5897 -10.772689041113477 1.967216010556996 -8.51337201209061 0 1 5
5706 1901 2 0.5897 -9.868125084526573 1.263654376760091 -10.64628691857735 -1 2 -1
1828 610 1 -1.1794 -10.58996971689196 2.39407464176882 -9.350413692233376 0 1 5
5705 1901 1 -1.1794 -9.587054693686751 0.858262713361544 -11.466585367108042 -1 2 -1
1829 610 2 0.5897 -11.36041942307129 2.9374373749502616 -9.515938211594039 0 1 5
4999 1665 2 0.5897 -7.161359396896651 1.4903524048692363 -8.045784459645313 1 1 2
1062 354 2 0.5897 8.807168725772092 7.2085833202253085 -3.9619829981920227 0 1 -2
1393 465 1 -1.1794 -4.380213594436287 -4.693876591750917 -13.416343007724086 -1 0 2
482 161 2 0.5897 -7.936932327050954 1.4058121079742194 -5.2112772740641224 0 3 -4
3171 1057 1 -1.1794 -11.608351536824312 1.9635919548568876 -13.355681942314133 0 -7 3
1041 347 2 0.5897 -5.897855648933775 -2.777113077615275 -10.49886657596066 2 1 -5
1039 347 1 -1.1794 -5.941793165536697 -1.8337876648359848 -10.655198403477778 2 1 -5
1040 347 2 0.5897 -5.28963878166696 -1.6729099051973706 -11.3371406517872 2 1 -5
1415 472 2 0.5897 -2.5223198864924794 -2.0084883000057805 -6.195759153540455 0 -1 -1
4724 1574 2 0.5897 -4.855091331057232 0.08550609898105398 -8.209356397889396 1 1 -3
61 21 1 -1.1794 -4.352799714590947 -1.9892821379683672 -13.013144721931054 0 4 2
5277 1758 2 0.5897 -4.211329991161978 -1.380979251694107 -6.980717289607172 0 0 1
4723 1574 2 0.5897 -5.050448525874168 -1.0821094349286515 -9.152969126502384 1 1 -3
1538 513 2 0.5897 -2.771146227889636 -2.1360067184937774 -9.491056603938087 1 0 3
4722 1574 1 -1.1794 -4.400806332789496 -0.6691015293182638 -8.584090337657752 1 1 -3
63 21 2 0.5897 -3.5134358791060047 -2.0368376828748542 -12.555499781383464 0 4 2
719 240 2 0.5897 -3.300885770150263 0.873980068709643 -9.21986041383351 0 -3 4
718 240 1 -1.1794 -3.110168857491581 1.7967226458348502 -9.051322262001802 0 -3 4
720 240 2 0.5897 -3.6254060644626045 2.2713100325995077 -9.703648915255892 0 -3 4
1537 513 1 -1.1794 -2.2534238042743433 -2.1835138914307777 -10.294759792574606 1 0 3
50 17 2 0.5897 -4.0002160025605145 2.6817923506001407 -12.342710197309254 0 3 -2
51 17 2 0.5897 -3.018567839867179 1.6280567247533722 -12.809515547176138 0 3 -2
49 17 1 -1.1794 -3.718340556457929 2.20185721501968 -13.121456440375452 0 3 -2
5401 1799 2 0.5897 -5.009672377316423 1.6083795760990964 -6.619405369881862 1 -2 -3
1725 575 2 0.5897 -7.533144120296627 2.78777747258014 -13.830190338705645 2 3 7
2717 905 2 0.5897 -7.26029099904871 -2.2543565894688173 -6.8871860368309825 0 4 0
5276 1758 1 -1.1794 -4.162963509411773 -1.8010085506591467 -6.121957201300962 0 0 1
5278 1758 2 0.5897 -4.712684554689478 -2.580241875014989 -6.204631877920905 0 0 1
4998 1665 2 0.5897 -6.9646476598069595 0.07730704014696692 -7.539320923509934 1 1 2
4997 1665 1 -1.1794 -6.482452360597715 0.8624516125157621 -7.798683813002024 1 1 2
5848 1948 2 0.5897 3.2991068042238862 1.4621828434404154 -13.68693815309444 0 -3 -3
1771 591 1 -1.1794 2.857710260637517 -1.676783769372004 -10.50076364530957 0 -1 4
2668 889 2 0.5897 3.0411502908189676 -3.394484543241058 -7.228374710110358 1 2 1
6683 2227 1 -1.1794 3.566955937429229 -1.937075495278656 -0.1959313476232918 1 3 1
1414 472 1 -1.1794 -1.5965600884129532 -2.227103748124897 -6.302577807664642 0 -1 -1
711 237 2 0.5897 -1.4490468291934817 2.8279906454246087 -8.715796217771434 -1 -1 -2
1773 591 2 0.5897 2.013685994938271 -1.2282212774006596 -10.449314120875295 0 -1 4
1539 513 2 0.5897 -1.54699609810196 -1.551209393579462 -10.162896517157856 1 0 3
4000 1333 2 0.5897 0.051168372493114206 2.3610631240986635 -7.369853274976347 -1 4 1
6864 2287 2 0.5897 -0.2279377475083292 -1.4516560181404257 -7.117688933354385 1 -6 -2
1124 375 2 0.5897 0.21590033213394427 -0.7726723401297353 -9.058748093185475 0 -1 3
1123 375 1 -1.1794 0.23120890156923016 -0.7254085150847815 -10.014662226919144 0 -1 3
1125 375 2 0.5897 0.1309740659058918 0.2061649488057831 -10.21051601428503 0 -1 3
6863 2287 1 -1.1794 0.614253268912414 -1.0544569615774448 -7.3394561598706 1 -6 -2
6865 2287 2 0.5897 0.5307174743834926 -0.14284522266025282 -7.059781340641853 1 -6 -2
2772 924 1 -1.1794 8.797207960049864 -11.953463569335156 -2.169336953061659 -1 0 -2
1481 494 2 0.5897 1.7067014093185147 1.8704739113594178 -11.866874089516127 1 2 1
5521 1839 2 0.5897 -3.0586029686439775 3.303033640730613 -0.7647807224746854 1 0 -7
1480 494 1 -1.1794 1.041222774656481 1.8388087885026558 -11.179583593393819 1 2 1
1482 494 2 0.5897 1.3951914732602664 2.384673936491895 -10.477465666818457 1 2 1
7244 2414 1 -1.1794 4.283368765905095 2.5827729907409114 -9.339965296318825 0 -3 1
7245 2414 2 0.5897 3.996373263568316 2.2042428568385586 -8.508953376376134 0 -3 1
2669 889 2 0.5897 2.2919732167321043 -2.0988899498488767 -7.000199893256677 1 2 1
3999 1333 1 -1.1794 0.3558882188156396 1.7521056850163292 -6.6971354352114565 -1 4 1
2667 889 1 -1.1794 2.8978593633631404 -2.707489774966758 -6.577422899305798 1 2 1
5780 1926 1 -1.1794 9.057002192500052 -8.139808225519083 -11.281761147670919 1 -1 3
3646 1215 2 0.5897 4.0764890969825 -1.3086320900802355 -9.185777793884212 1 -3 1
3647 1215 2 0.5897 4.261861080358652 -1.506492129666932 -7.696353608227495 1 -3 1
3645 1215 1 -1.1794 4.710725164755379 -1.1872721099319894 -8.479202159362684 1 -3 1
7246 2414 2 0.5897 5.0190511527308335 2.0342289753016787 -9.612185537355815 0 -3 1
4298 1432 2 0.5897 6.286941431820431 -1.8452344891935926 -8.87617952263659 1 3 1
2841 947 1 -1.1794 6.266403066629487 0.8117572560183915 -9.7873774100115 1 2 -2
4037 1345 2 0.5897 6.371319921532954 0.9865945498136336 -11.858198047901292 1 -3 3
4350 1450 1 -1.1794 4.488348622191226 2.8537580622721013 -13.239274497227335 0 0 1
4036 1345 2 0.5897 6.03802464689109 1.7536174858412834 -13.120135906857385 1 -3 3
4035 1345 1 -1.1794 6.699809517930226 1.1781132872059925 -12.736633983844998 1 -3 3
2842 947 2 0.5897 5.817621170713434 0.07604511414877803 -9.370778517358934 1 2 -2
2843 947 2 0.5897 7.111530422129169 0.8614042640196256 -9.340692997560222 1 2 -2
4351 1450 2 0.5897 4.082034533757976 3.3597332070712698 -12.535619460008576 0 0 1
1380 460 2 0.5897 8.52207613751678 1.3015536430716756 -11.557557267573914 0 -3 1
4989 1662 2 0.5897 3.609354472811469 3.6375833729056186 -10.676032447274387 1 -1 -2
4352 1450 2 0.5897 4.564622408277786 3.4718685586153173 -13.966154394078986 0 0 1
18 6 2 0.5897 -11.635182380825666 -6.547688221797408 -13.902320000517609 -1 2 -2
1379 460 2 0.5897 8.936200088247482 2.352645347036909 -10.549785968603533 0 -3 1
948 316 2 0.5897 -12.620083183196895 5.425742705445481 -11.85067453420944 0 3 4
1259 420 2 0.5897 -11.859207406606407 5.40115908216652 -6.926896293989473 1 -3 -1
1723 575 1 -1.1794 -8.360204170122005 2.656916482812099 -13.36642410711273 2 3 7
5074 1690 2 0.5897 -9.076076950952428 2.799240424340885 -8.491259258399221 1 -2 -2
5072 1690 1 -1.1794 -8.123314160963776 2.87884629285601 -8.445005791577143 1 -2 -2
5073 1690 2 0.5897 -7.958710990489179 3.8207041853338573 -8.49021288485342 1 -2 -2
5942 1980 1 -1.1794 4.643698290324591 14.528877523850714 -5.681594561661933 1 0 -2
2059 687 1 -1.1794 3.116629857091789 -1.9776652767310323 -13.107054519026473 1 -3 1
1596 532 2 0.5897 -11.081384383356548 6.706128866958377 -9.864684692445886 -1 -1 -3
1594 532 1 -1.1794 -10.238222982501034 6.971402519156339 -9.497341717958948 -1 -1 -3
1595 532 2 0.5897 -10.436003340374082 7.212986470620774 -8.592491969850904 -1 -1 -3
4572 1524 1 -1.1794 -10.790801964335605 7.2600496708791695 -6.983101107534487 1 4 -4
6372 2123 2 0.5897 -9.79898878552936 6.701002412551732 -11.49894298592973 -1 0 -1
6371 2123 1 -1.1794 -9.395785636738456 6.709511549530907 -12.367037491849217 -1 0 -1
5566 1854 2 0.5897 -8.985678810909212 6.012825105658918 -8.49685198856107 -1 2 -2
3874 1291 2 0.5897 -12.048510489409722 -5.408786367210939 -3.427124991195398 1 2 -1
3003 1001 1 -1.1794 -1.3257674826327372 11.023771011283019 -5.077352348794262 1 3 -2
4710 1570 1 -1.1794 8.902100407770467 -13.610310346940368 -13.371425103394463 1 2 4
5564 1854 1 -1.1794 -8.280200516508167 5.5323288561587685 -8.063659368998628 -1 2 -2
6373 2123 2 0.5897 -8.455248127419557 6.7521188221506625 -12.194388500797986 -1 0 -1
1724 575 2 0.5897 -9.033715449603896 2.8750054694038556 -14.010670002470077 2 3 7
6045 2014 2 0.5897 -10.655118380505163 6.787516516461513 -13.761478524178493 2 -3 3
2252 751 2 0.5897 -12.067195066689798 12.771587554430091 -5.216678529707899 1 2 1
767 256 2 0.5897 -8.503576055713744 -10.252705892261943 -14.047867836039567 0 6 2
4303 1434 2 0.5897 -6.970002040011905 5.6677286523806965 -11.627869669179493 0 -1 0
686 229 2 0.5897 -5.387289082816699 3.7749801581117013 -10.84896482914243 0 3 12
685 229 1 -1.1794 -4.488787374286057 3.4788927772772995 -10.703146306049252 0 3 12
5565 1854 2 0.5897 -7.4974340965549295 6.059610638727447 -8.2232936559954 -1 2 -2
2722 907 2 0.5897 -7.641803437921009 3.1835065734751637 -10.36530140111243 0 3 -1
5400 1799 2 0.5897 -3.764713800503453 2.051531896661259 -7.35804577978574 1 -2 -3
5399 1799 1 -1.1794 -4.206619127731912 2.1179944288098977 -6.511561911492886 1 -2 -3
2723 907 2 0.5897 -7.662759524431303 3.3381542055844053 -11.87113852481242 0 3 -1
687 229 2 0.5897 -3.9497526654367237 4.2482070663330695 -10.887086315318989 0 3 12
4302 1434 1 -1.1794 -6.6277899366314585 6.539084218033029 -11.827536392864408 0 -1 0
2987 995 2 0.5897 -6.115449063324665 8.190933174125199 -11.223825066819055 0 0 2
1882 628 1 -1.1794 -6.246912164208414 7.234949019234181 -8.443919979615059 0 3 -2
1883 628 2 0.5897 -5.433824061341899 6.8706121410811845 -8.094092805802442 0 3 -2
1884 628 2 0.5897 -5.971906833125536 7.752562842168342 -9.200678287492625 0 3 -2
2721 907 1 -1.1794 -7.340405113200354 3.7546348734632637 -11.071846150548778 0 3 -1
7146 2381 2 0.5897 -1.9614195008627506 6.036474386566807 -11.37952003475076 0 -2 0
2985 995 1 -1.1794 -5.991777951602936 8.940304731557791 -10.641261541002656 0 0 2
2513 837 2 0.5897 -2.9545571435715665 5.500806375180711 -8.101946608350936 0 -4 4
2511 837 1 -1.1794 -2.039056030998806 5.7104035389457675 -8.286768059722506 0 -4 4
6522 2173 2 0.5897 -3.484681163534873 8.9294485896963 -10.438514132746725 0 0 2
483 161 2 0.5897 -7.210215000527273 2.210954251830568 -6.2674608856584095 0 3 -4
4304 1434 2 0.5897 -6.2446767583321385 6.452235466205716 -12.700415127502573 0 -1 0
710 237 2 0.5897 -1.0700601914019543 4.260412543953475 -8.40526116022492 -1 -1 -2
709 237 1 -1.1794 -0.6991307688681598 3.4217513487090354 -8.679653573490924 -1 -1 -2
2512 837 2 0.5897 -1.7429164753439998 6.193272988761643 -7.51516529815709 0 -4 4
7147 2381 2 0.5897 -3.334138537717293 6.466420381634929 -11.851415781572477 0 -2 0
7145 2381 1 -1.1794 -2.761842516325479 5.702097479686454 -11.784181372490249 0 -2 0
5022 1673 2 0.5897 -2.5393070130166273 -4.037965086413185 -14.069412928042112 2 5 -4
1744 582 1 -1.1794 2.156743247032781 6.570994680003789 -13.665296976330508 1 3 2
5725 1907 2 0.5897 -0.5396790701235621 7.507780972906135 -10.242355447186794 0 3 0
3208 1069 2 0.5897 0.9187208566742823 4.29412635470624 -12.034122207331176 1 1 -2
5724 1907 2 0.5897 -1.0837308215749297 6.205701409018092 -9.694183686923735 0 3 0
3207 1069 1 -1.1794 0.20601472049266087 4.839027590435199 -12.36783558565224 1 1 -2
3209 1069 2 0.5897 0.04172773098585293 5.47315895915389 -11.669895782095091 1 1 -2
5723 1907 1 -1.1794 -0.5393200212008511 6.562954270359125 -10.395768102714861 0 3 0
1746 582 2 0.5897 2.0648598272897254 7.394249281542014 -13.185670246854533 1 3 2
1824 608 2 0.5897 2.3270697312157136 6.658773412607854 -9.6445812975836 1 0 -3
1823 608 2 0.5897 0.9650585021882233 6.173362662247918 -9.19603096243444 1 0 -3
1822 608 1 -1.1794 1.896931584922589 6.113922463839991 -8.98552717001697 1 0 -3
5783 1927 1 -1.1794 2.029017045093082 9.15776268381618 -12.440150190043864 2 -1 -2
5145 1714 2 0.5897 1.8555911954280577 7.8890722304654215 -7.56022755935661 0 -3 -2
1745 582 2 0.5897 1.4897381676571597 5.99757253252088 -13.287774087294052 1 3 2
5785 1927 2 0.5897 1.1369920244447564 9.301187557525967 -12.12399557845327 2 -1 -2
4145 1381 2 0.5897 -8.251591014115355 -7.862090409990785 -13.776909786275198 1 -5 2
5943 1980 2 0.5897 4.468283330128041 -14.319937729681875 -4.795595512511342 1 1 -2
5021 1673 1 -1.1794 -1.641295006930921 -3.8950669810051557 -14.36839559728911 2 5 -4
3082 1027 2 0.5897 8.272155408559906 6.390861835337745 -12.554355963636567 0 1 1
2629 876 2 0.5897 6.76808139824157 12.669223586482081 -1.5135711985719076 2 0 3
4988 1662 1 -1.1794 3.06128888160099 4.173056003263905 -11.24972709826833 1 -1 -2
4990 1662 2 0.5897 3.0712439180438125 5.0420671047461925 -10.84853796552163 1 -1 -2
852 284 2 0.5897 3.290196106697127 8.051778434128504 -11.428070096808863 2 -1 -1
850 284 1 -1.1794 3.311445337857078 7.258732461657967 -10.892477392667322 2 -1 -1