LAMMPS data file via write_data, version 29 Sep 2021, timestep = 100000

19000 atoms
5 atom types

-56.474240828124294 39.970402254160646 xlo xhi
-23.81101577952299 23.81101577952299 ylo yhi
-23.81101577952299 23.81101577952299 zlo zhi

Masses

1 1
2 1
3 1
4 1
5 1

PairIJ Coeffs # lj/cut

1 1 1 1 2.5
1 2 1 1 2.5
1 3 1 1 2.5
1 4 0.8 1 2.5
1 5 0.1 2 2.5
2 2 1 1 2.5
2 3 1 1 2.5
2 4 0.8 1 2.5
2 5 0.1 2 2.5
3 3 1 1 2.5
3 4 0.8 1 2.5
3 5 0.1 2 2.5
4 4 1 1 2.5
4 5 1.41421 1.73205 2.5
5 5 2 3 2.5

Atoms # atomic

1 1 -56.45868321097875 -23.81101577952299 -23.81101577952299 0 0 0
2 1 -56.45868321097875 -23.01731525353889 -23.01731525353889 0 0 0
12604 4 -55.33969011430266 -23.369570524173792 -22.69303293499233 0 1 0
10285 4 -44.663580190536806 -23.403815156089678 -23.230681113516482 0 0 1
10657 4 -31.16142622680971 -23.271393586787635 -23.299540069737116 0 0 0
9905 4 -26.45707440878493 -22.831248557028598 -22.680707793911836 0 0 1
1801 2 0 -23.81101577952299 -23.81101577952299 0 0 0
1802 2 0 -23.01731525353889 -23.01731525353889 0 0 0
16802 4 18.798097391334025 -22.963776166305514 -23.158329837905686 0 1 1
14218 4 35.039485231647426 -23.226553617450026 -23.063492864838874 0 0 1
17227 4 36.58284797695161 -22.880719917468383 -23.35350014953161 0 0 1
3601 3 38.40920290202328 -23.81101577952299 -23.81101577952299 0 0 0
3604 3 38.40920290202328 -23.01731525353889 -23.01731525353889 0 0 0
14609 4 37.357934823274384 -23.659399731473705 -23.173012013072068 0 1 0
3602 3 39.18202376951926 -23.01731525353889 -23.81101577952299 0 0 0
3603 3 39.18202376951926 -23.81101577952299 -23.01731525353889 0 0 0
3605 3 39.9548446370151 -23.81101577952299 -23.81101577952299 0 0 0
3606 3 39.9548446370151 -23.01731525353889 -23.01731525353889 0 0 0
11375 4 -55.491759326403304 -22.30769664911076 -23.141852292076727 0 0 0
3 1 -56.45868321097875 -22.22361472755479 -23.81101577952299 0 0 0
4 1 -56.45868321097875 -21.429914201570693 -23.01731525353889 0 0 0
13877 4 -45.00950218794245 -22.001610770161697 -23.07890342947411 0 0 0
11629 4 -27.420312860070275 -22.301184586617932 -23.32799968920451 0 1 1
1803 2 0 -22.22361472755479 -23.81101577952299 0 0 0
1804 2 0 -21.429914201570693 -23.01731525353889 0 0 0
12326 4 -1.0932646728195508 -22.233789321808473 -22.480011813444584 0 1 0
16365 4 0.9532677472752897 -21.17840781316522 -23.650393439044567 0 1 0
15253 4 18.24545399991504 -21.286645266429765 -23.65820572535569 0 0 0
18018 4 20.844026190725902 -21.25921023042332 -22.954234291903276 0 0 0
14333 4 32.948899137883835 -21.74337773346728 -23.35935187570769 0 0 1
3607 3 38.40920290202328 -22.22361472755479 -23.81101577952299 0 0 0
3610 3 38.40920290202328 -21.429914201570693 -23.01731525353889 0 0 0
14418 4 37.65853747561165 -22.242416977981577 -23.03701248927892 0 0 1
3608 3 39.18202376951926 -21.429914201570693 -23.81101577952299 0 0 0
3609 3 39.18202376951926 -22.22361472755479 -23.01731525353889 0 0 0
3611 3 39.9548446370151 -22.22361472755479 -23.81101577952299 0 0 0
3612 3 39.9548446370151 -21.429914201570693 -23.01731525353889 0 0 0
5 1 -56.45868321097875 -20.636213675586593 -23.81101577952299 0 0 0
6 1 -56.45868321097875 -19.842513149602492 -23.01731525353889 0 0 0
13876 4 -33.44141039161303 -20.20374624930031 -23.18222967058183 0 0 0
9318 4 -4.725717114277622 -20.617061989673026 -23.04816648982742 0 0 1
1805 2 0 -20.636213675586593 -23.81101577952299 0 0 0
1806 2 0 -19.842513149602492 -23.01731525353889 0 0 0
14684 4 30.906212970999647 -19.66211993528334 -23.270605605766495 0 0 1
18815 5 36.42201607441008 -20.85286198845038 -23.469149050810138 0 1 1
3613 3 38.40920290202328 -20.636213675586593 -23.81101577952299 0 0 0
3616 3 38.40920290202328 -19.842513149602492 -23.01731525353889 0 0 0
3614 3 39.18202376951926 -19.842513149602492 -23.81101577952299 0 0 0
3615 3 39.18202376951926 -20.636213675586593 -23.01731525353889 0 0 0
3617 3 39.9548446370151 -20.636213675586593 -23.81101577952299 0 0 0
3618 3 39.9548446370151 -19.842513149602492 -23.01731525353889 0 0 0
7 1 -56.45868321097875 -19.048812623618392 -23.81101577952299 0 0 0
8 1 -56.45868321097875 -18.255112097634292 -23.01731525353889 0 0 0
12726 4 -49.88415774088865 -18.353158459530906 -22.6181881265607 0 0 1
10423 4 -45.86177443715818 -18.409170771360685 -22.452941002303856 0 0 0
13417 4 -41.31809474819884 -18.381662113543136 -22.504014543904628 0 0 0
10400 4 -22.36505200464044 -19.35836995590727 -23.651383533362473 0 0 0
11755 4 -21.262235320590992 -19.372988869210175 -23.570573644817408 0 1 0
13698 4 -18.06515420721838 -18.23650172322548 -23.2038066045568 0 0 0
9986 4 -11.411840607100913 -19.556532016601558 -23.543318680709433 0 0 0
1807 2 0 -19.048812623618392 -23.81101577952299 0 0 0
1808 2 0 -18.255112097634292 -23.01731525353889 0 0 0
15810 4 10.871383774919119 -18.23946268591902 -22.54673618683319 0 1 0
14688 4 19.212562998509537 -18.671370746964254 -23.7938571294998 0 0 0
14303 4 27.530554070601365 -19.33998308649681 -23.66764323771298 0 1 1
16134 4 36.45115516478987 -18.68118443529024 -22.514768912634537 0 0 0
3619 3 38.40920290202328 -19.048812623618392 -23.81101577952299 0 0 0
3622 3 38.40920290202328 -18.255112097634292 -23.01731525353889 0 0 0
14022 4 37.56616202616303 -19.29904430052577 -23.097010099994407 0 0 1
3620 3 39.18202376951926 -18.255112097634292 -23.81101577952299 0 0 0
3621 3 39.18202376951926 -19.048812623618392 -23.01731525353889 0 0 0
3623 3 39.9548446370151 -19.048812623618392 -23.81101577952299 0 0 0
3624 3 39.9548446370151 -18.255112097634292 -23.01731525353889 0 0 0
9 1 -56.45868321097875 -17.461411571650192 -23.81101577952299 0 0 0
9791 4 -55.618839601890606 -17.62076389960763 -23.146911494506725 0 0 0
13685 4 -54.33953719451917 -17.291611321783574 -23.48592466422582 0 0 0
10172 4 -53.47611836681628 -16.96598733976445 -22.81750047937932 0 0 1
9043 4 -21.51432045884346 -17.33612366307251 -23.80312429717382 0 1 0
11813 4 -20.73796333667187 -18.001602658340275 -23.037349290953 0 0 1
12914 4 -8.627044092438833 -17.072775707192747 -22.7591247610111 0 0 1
1809 2 0 -17.461411571650192 -23.81101577952299 0 0 0
17391 4 24.913162713646386 -17.31192421825813 -23.499366412523695 0 1 1
16012 4 31.08990225727926 -17.80988835808031 -23.51167479540677 0 0 1
14181 4 36.73955072329703 -17.948303385759306 -23.502005622750733 0 1 0
16884 4 37.663415859645404 -17.69510989982992 -23.043043231148907 0 0 0
3625 3 38.40920290202328 -17.461411571650192 -23.81101577952299 0 0 0
3627 3 39.18202376951926 -17.461411571650192 -23.01731525353889 0 0 0
3629 3 39.9548446370151 -17.461411571650192 -23.81101577952299 0 0 0
10 1 -56.45868321097875 -16.667711045666092 -23.01731525353889 0 0 0
11 1 -56.45868321097875 -15.874010519681994 -23.81101577952299 0 0 0
10892 4 -54.43503989486689 -15.780764030979569 -23.77958447468319 0 1 1
9923 4 -53.48948670183637 -15.429149105611598 -23.426441003617878 0 0 0
9247 4 -48.980307181069364 -15.608168794295366 -22.480047441731806 0 1 0
11448 4 -39.077610047627715 -16.156263236447668 -22.7854483114519 0 0 1
9125 4 -33.67152281695457 -16.291359239219403 -23.70158025227374 0 0 0
13210 4 -10.412668232309425 -16.341855308805776 -22.936819950349363 0 0 0
11063 4 -4.9978977985519535 -16.655418730929338 -23.803594222230057 0 0 1
1810 2 0 -16.667711045666092 -23.01731525353889 0 0 0
1811 2 0 -15.874010519681994 -23.81101577952299 0 0 0
15995 4 1.3612372691123187 -16.37647891682736 -22.44261744606026 0 1 1
18084 4 5.353503484560933 -16.50943814188511 -23.43519727293165 0 1 1
17242 4 32.340178076422156 -15.407592432248622 -23.607264155413546 0 1 1
16110 4 31.697266171519775 -16.78284249938519 -23.29859116715484 0 0 0
16653 4 35.68776664262707 -16.76847746643994 -22.479032991149634 0 0 0
17914 4 35.53476734586424 -16.58577842110342 -23.488424315849613 0 0 1
18398 4 36.659236751664665 -16.800618411743056 -23.03818956638412 0 1 0
3628 3 38.40920290202328 -16.667711045666092 -23.01731525353889 0 0 0
3631 3 38.40920290202328 -15.874010519681994 -23.81101577952299 0 0 0
18431 4 37.601839009895905 -15.898295450235135 -22.95108579722116 0 0 0
3626 3 39.18202376951926 -16.667711045666092 -23.81101577952299 0 0 0
3630 3 39.9548446370151 -16.667711045666092 -23.01731525353889 0 0 0
3633 3 39.18202376951926 -15.874010519681994 -23.01731525353889 0 0 0
3635 3 39.9548446370151 -15.874010519681994 -23.81101577952299 0 0 0
12 1 -56.45868321097875 -15.080309993697893 -23.01731525353889 0 0 0
13 1 -56.45868321097875 -14.286609467713795 -23.81101577952299 0 0 0
13387 4 -54.66670115372852 -14.7631040290808 -22.989234742876153 0 0 0
12267 4 -52.50685708508015 -14.628965721485349 -22.79749035634182 0 0 0
11682 4 -29.26621565545983 -14.038140687445475 -22.867270630528 0 1 1
9234 4 -10.167800371981604 -15.318868661248118 -23.7307206336946 0 0 0
13102 4 -8.923292303123352 -15.074995192454775 -23.233718855610803 0 0 0
10768 4 -9.37635212351276 -14.034677951141422 -23.427854527779377 0 1 0
1812 2 0 -15.080309993697893 -23.01731525353889 0 0 0
1813 2 0 -14.286609467713795 -23.81101577952299 0 0 0
18129 4 5.37016510968334 -15.09322140651228 -23.378393756409054 0 0 1
15761 4 30.78164710439429 -14.1690378940294 -23.223460495953105 0 0 0
14090 4 34.738334304289985 -14.632754020872138 -22.940376827504082 0 0 1
15007 4 35.69316695912412 -14.153831139375542 -22.525615815440684 0 0 0
14325 4 35.42830169149428 -15.208531299995556 -22.477519553248666 0 1 0
16371 4 36.46417202254661 -14.392765473025632 -23.176759419960074 0 0 0
3634 3 38.40920290202328 -15.080309993697893 -23.01731525353889 0 0 0
3637 3 38.40920290202328 -14.286609467713795 -23.81101577952299 0 0 0
15560 4 37.20773094480904 -15.038842713471256 -23.797460679114387 0 1 0
3632 3 39.18202376951926 -15.080309993697893 -23.81101577952299 0 0 0
3636 3 39.9548446370151 -15.080309993697893 -23.01731525353889 0 0 0
3639 3 39.18202376951926 -14.286609467713795 -23.01731525353889 0 0 0
3641 3 39.9548446370151 -14.286609467713795 -23.81101577952299 0 0 0
14 1 -56.45868321097875 -13.492908941729695 -23.01731525353889 0 0 0
15 1 -56.45868321097875 -12.699208415745595 -23.81101577952299 0 0 0
12070 4 -52.52793316317382 -13.375205570196266 -23.568944781572096 0 0 0
13911 4 -51.0542695519046 -13.681140131610086 -23.20545597766426 0 0 0
13759 4 -31.438535634105587 -13.630901692479142 -23.73211529506445 0 0 1
13235 4 -29.51744320974185 -13.372348936112344 -23.7818890217422 0 0 0
1814 2 0 -13.492908941729695 -23.01731525353889 0 0 0
1815 2 0 -12.699208415745595 -23.81101577952299 0 0 0
17156 4 26.506340930932137 -13.521802637815721 -22.466955029130258 0 0 0
14437 4 26.29994232883702 -12.749495293334494 -23.2989284292118 0 0 1
18962 5 35.281483645806496 -13.017905233673362 -23.7876098738657 0 0 0
15567 4 36.889286725588704 -13.655630596620584 -22.639921770980155 0 0 0
3640 3 38.40920290202328 -13.492908941729695 -23.01731525353889 0 0 0
3643 3 38.40920290202328 -12.699208415745595 -23.81101577952299 0 0 0
3638 3 39.18202376951926 -13.492908941729695 -23.81101577952299 0 0 0
3642 3 39.9548446370151 -13.492908941729695 -23.01731525353889 0 0 0
3645 3 39.18202376951926 -12.699208415745595 -23.01731525353889 0 0 0
3647 3 39.9548446370151 -12.699208415745595 -23.81101577952299 0 0 0
12616 4 -55.34533512251835 -11.748611119305604 -22.833875396080163 0 0 1
16 1 -56.45868321097875 -11.905507889761495 -23.01731525353889 0 0 0
10471 4 -48.47265067992042 -11.447796109616315 -23.36851861129069 0 0 0
1816 2 0 -11.905507889761495 -23.01731525353889 0 0 0
15394 4 16.78117725686772 -11.454064030953498 -23.0548960888865 0 0 0
15170 4 36.998879685040095 -12.470040251258661 -23.48639967883131 0 0 0
17295 4 36.93851490220176 -11.256598167052395 -22.576499035973736 0 0 0
3646 3 38.40920290202328 -11.905507889761495 -23.01731525353889 0 0 0
3644 3 39.18202376951926 -11.905507889761495 -23.81101577952299 0 0 0
3648 3 39.9548446370151 -11.905507889761495 -23.01731525353889 0 0 0
17 1 -56.45868321097875 -11.111807363777395 -23.81101577952299 0 0 0
18 1 -56.45868321097875 -10.318106837793296 -23.01731525353889 0 0 0
12699 4 -53.76797281323468 -10.548112304676883 -23.11240012712566 0 1 0
9838 4 -51.713388670809955 -11.168365796824821 -23.29811943744724 0 0 0
10795 4 -35.695620818158076 -9.962618326796004 -23.46896806080976 0 -1 1
12068 4 -30.001321937367027 -10.70610540896412 -23.108339881545206 0 0 1
10016 4 -23.077389122481105 -10.843960027524634 -23.31631383264072 0 1 1
10266 4 -8.60112954998037 -10.602398596109882 -23.098836192357236 0 0 0
9799 4 -6.984125263102835 -9.92170832533324 -22.927047572738573 0 0 0
11612 4 -1.2816597106920062 -11.000104982496657 -22.769471441574385 0 0 1
1817 2 0 -11.111807363777395 -23.81101577952299 0 0 0
1818 2 0 -10.318106837793296 -23.01731525353889 0 0 0
17165 4 29.756887448861846 -9.899512109891148 -23.232324215530145 0 0 1
16742 4 29.02271934272898 -10.310106018297224 -22.418199167513276 0 0 1
15366 4 32.882381666949776 -10.257367693507268 -23.111853349160665 0 0 1
18105 4 34.66081124188261 -11.115576493117317 -23.69018285675924 0 0 0
14855 4 35.51537424160311 -11.128949625291465 -22.988328853324298 0 0 1
3649 3 38.40920290202328 -11.111807363777395 -23.81101577952299 0 0 0
3652 3 38.40920290202328 -10.318106837793296 -23.01731525353889 0 0 0
18153 4 37.45937976066322 -10.036642612390395 -23.805146879777915 0 0 1
3650 3 39.18202376951926 -10.318106837793296 -23.81101577952299 0 0 0
3651 3 39.18202376951926 -11.111807363777395 -23.01731525353889 0 0 0
3653 3 39.9548446370151 -11.111807363777395 -23.81101577952299 0 0 0
3654 3 39.9548446370151 -10.318106837793296 -23.01731525353889 0 0 0
19 1 -56.45868321097875 -9.524406311809196 -23.81101577952299 0 0 0
20 1 -56.45868321097875 -8.730705785825096 -23.01731525353889 0 0 0
12489 4 -39.26897696031978 -9.541126293944698 -22.938203691737463 0 1 1
10142 4 -13.041474936174023 -9.2905650941296 -22.777962461717596 0 0 0
12653 4 -11.733669048052587 -9.409018015699322 -22.990002146401718 0 0 1
1819 2 0 -9.524406311809196 -23.81101577952299 0 0 0
1820 2 0 -8.730705785825096 -23.01731525353889 0 0 0
17602 4 3.026792075287193 -9.642268386835626 -23.79949843151488 0 0 1
14467 4 33.10880160960362 -9.057365456915907 -23.1445720550437 0 0 1
18684 5 35.87978686038221 -9.168395810717303 -22.97046731104177 0 0 1
3655 3 38.40920290202328 -9.524406311809196 -23.81101577952299 0 0 0
3658 3 38.40920290202328 -8.730705785825096 -23.01731525353889 0 0 0
15146 4 37.54136706607534 -9.012238027211147 -22.431447722124826 0 0 0
3656 3 39.18202376951926 -8.730705785825096 -23.81101577952299 0 0 0
3657 3 39.18202376951926 -9.524406311809196 -23.01731525353889 0 0 0
3659 3 39.9548446370151 -9.524406311809196 -23.81101577952299 0 0 0
3660 3 39.9548446370151 -8.730705785825096 -23.01731525353889 0 0 0
21 1 -56.45868321097875 -7.937005259840997 -23.81101577952299 0 0 0
22 1 -56.45868321097875 -7.143304733856898 -23.01731525353889 0 0 0
13036 4 -43.37820891944697 -7.479745426231569 -22.676313867887654 0 0 0
11570 4 -31.069278641328836 -8.022860927360462 -23.480327249416156 0 0 0
11936 4 -26.936927510320665 -7.72265236197064 -22.908934439219788 0 1 0
13428 4 -22.216317667182633 -8.161728202760786 -22.785317483690974 0 0 0
10736 4 -11.020307440686649 -8.248060464310228 -23.189360438070125 0 0 1
1821 2 0 -7.937005259840997 -23.81101577952299 0 0 0
1822 2 0 -7.143304733856898 -23.01731525353889 0 0 0
17413 4 26.27980566672387 -7.778902336525497 -23.765224290284106 0 0 0
3661 3 38.40920290202328 -7.937005259840997 -23.81101577952299 0 0 0
3664 3 38.40920290202328 -7.143304733856898 -23.01731525353889 0 0 0
3662 3 39.18202376951926 -7.143304733856898 -23.81101577952299 0 0 0
3663 3 39.18202376951926 -7.937005259840997 -23.01731525353889 0 0 0
3665 3 39.9548446370151 -7.937005259840997 -23.81101577952299 0 0 0
3666 3 39.9548446370151 -7.143304733856898 -23.01731525353889 0 0 0
23 1 -56.45868321097875 -6.3496042078727974 -23.81101577952299 0 0 0
12833 4 -50.7573577501541 -5.906063167375345 -22.473221130984335 0 0 1
9849 4 -32.40920520322635 -6.777353549248438 -23.725059827071 0 -1 1
9692 4 -25.264684999641798 -6.851696183290158 -23.14054930419642 0 0 1
9537 4 -16.319011768759086 -6.175643090144111 -22.584683118235272 0 0 0
12851 4 -6.166430384372506 -5.6680665685697615 -23.809905528188946 0 0 0
1823 2 0 -6.3496042078727974 -23.81101577952299 0 0 0
15407 4 11.934692933806973 -6.780026765730055 -22.941276031846684 0 0 1
14430 4 23.725070975039902 -6.784267449872581 -22.43170946305973 0 0 0
14203 4 29.784112592330764 -6.911240937776106 -23.61219309880208 0 0 1
18903 5 32.36183462849233 -6.470867546767529 -22.543299874169755 0 0 1
17956 4 36.4024283610017 -5.939936211412202 -23.453484800532426 0 0 0
17748 4 37.41009165608837 -6.646539306269582 -23.515197482004826 0 0 0
3667 3 38.40920290202328 -6.3496042078727974 -23.81101577952299 0 0 0
3669 3 39.18202376951926 -6.3496042078727974 -23.01731525353889 0 0 0
3671 3 39.9548446370151 -6.3496042078727974 -23.81101577952299 0 0 0
24 1 -56.45868321097875 -5.555903681888697 -23.01731525353889 0 0 0
25 1 -56.45868321097875 -4.762203155904598 -23.81101577952299 0 0 0
13439 4 -54.94758963786131 -4.4885335725568 -23.31433357813632 0 0 1
13040 4 -51.537023320841826 -5.4112566551973345 -22.869890680635468 0 0 0
13154 4 -7.174632713110336 -4.85517992084429 -23.204023112202197 0 0 1
1824 2 0 -5.555903681888697 -23.01731525353889 0 0 0
1825 2 0 -4.762203155904598 -23.81101577952299 0 0 0
15309 4 20.40848660533107 -5.170705250592004 -23.137163626021525 0 1 0
14080 4 24.268451879225243 -4.6430172957422124 -22.737325038618277 0 0 0
16202 4 23.10009291600194 -4.283208471965363 -23.231126851537287 0 0 0
14775 4 30.99633235271773 -4.7500730244626945 -23.641200451874358 0 0 1
15486 4 35.246090092135944 -5.54264671849057 -22.62700398074917 0 0 0
16900 4 35.6761204423944 -4.641449572335383 -23.048855727550787 0 0 1
17034 4 36.685973268854575 -4.385134387890516 -23.092729268335784 0 0 0
3670 3 38.40920290202328 -5.555903681888697 -23.01731525353889 0 0 0
3673 3 38.40920290202328 -4.762203155904598 -23.81101577952299 0 0 0
17185 4 37.590150603565185 -4.916673964805059 -23.021052859353034 0 0 0
3668 3 39.18202376951926 -5.555903681888697 -23.81101577952299 0 0 0
3672 3 39.9548446370151 -5.555903681888697 -23.01731525353889 0 0 0
3675 3 39.18202376951926 -4.762203155904598 -23.01731525353889 0 0 0
3677 3 39.9548446370151 -4.762203155904598 -23.81101577952299 0 0 0
26 1 -56.45868321097875 -3.9685026299204984 -23.01731525353889 0 0 0
27 1 -56.45868321097875 -3.1748021039363987 -23.81101577952299 0 0 0
11215 4 -48.81503182680666 -3.452098427481384 -23.005804704270023 0 0 0
11429 4 -35.37391460097644 -3.363058822180693 -23.799940989199445 0 0 0
13354 4 -22.529081265995018 -3.482151621276523 -22.928902835973616 0 0 0
10205 4 -21.466401941645934 -3.154002948517844 -23.056929387137718 0 0 1
9545 4 -1.20817204408102 -3.675088345827468 -22.63784291945684 0 0 1
1826 2 0 -3.9685026299204984 -23.01731525353889 0 0 0
1827 2 0 -3.1748021039363987 -23.81101577952299 0 0 0
16247 4 15.284819791629761 -3.756472533891878 -22.871194549856533 0 0 0
18044 4 22.547338502892742 -3.3234224316294037 -23.242747251199702 0 0 1
18067 4 31.307434080301412 -4.002353358258761 -22.84382080401906 0 0 1
3676 3 38.40920290202328 -3.9685026299204984 -23.01731525353889 0 0 0
3679 3 38.40920290202328 -3.1748021039363987 -23.81101577952299 0 0 0
16249 4 37.430718523825554 -3.1931658152945506 -22.765955281151104 0 0 0
3674 3 39.18202376951926 -3.9685026299204984 -23.81101577952299 0 0 0
3678 3 39.9548446370151 -3.9685026299204984 -23.01731525353889 0 0 0
3681 3 39.18202376951926 -3.1748021039363987 -23.01731525353889 0 0 0
3683 3 39.9548446370151 -3.1748021039363987 -23.81101577952299 0 0 0
28 1 -56.45868321097875 -2.381101577952299 -23.01731525353889 0 0 0
29 1 -56.45868321097875 -1.5874010519681994 -23.81101577952299 0 0 0
11206 4 -52.83017146511109 -2.149389219337558 -23.379296874077717 0 0 0
12637 4 -45.75998455380779 -2.6788877699859976 -22.752252020817178 0 0 1
10917 4 -34.38312122602221 -2.5835497757926813 -23.76191394600935 0 0 0
10136 4 -4.866990633956114 -2.0402768782705727 -23.217919706895945 0 0 0
1828 2 0 -2.381101577952299 -23.01731525353889 0 0 0
1829 2 0 -1.5874010519681994 -23.81101577952299 0 0 0
13918 4 -0.9615817524599722 -1.5832158393979046 -23.413999054372965 0 0 0
15215 4 16.118996933731353 -1.8278193464387629 -22.564413267746403 0 0 0
18725 5 33.216547197916945 -2.7589105978252038 -23.021472216335486 0 1 0
15706 4 37.16308761620305 -1.9483709106107425 -22.971514805780366 0 0 1
3682 3 38.40920290202328 -2.381101577952299 -23.01731525353889 0 0 0
3685 3 38.40920290202328 -1.5874010519681994 -23.81101577952299 0 0 0
3680 3 39.18202376951926 -2.381101577952299 -23.81101577952299 0 0 0
3684 3 39.9548446370151 -2.381101577952299 -23.01731525353889 0 0 0
3687 3 39.18202376951926 -1.5874010519681994 -23.01731525353889 0 0 0
3689 3 39.9548446370151 -1.5874010519681994 -23.81101577952299 0 0 0
30 1 -56.45868321097875 -0.7937005259840997 -23.01731525353889 0 0 0
12135 4 -55.577889508376764 -0.3196446647023674 -22.8107432308917 0 0 0
10571 4 -52.650145889449156 -1.149834749340833 -23.259124371814305 0 0 0
12534 4 -29.404571445191845 -1.2377824063432277 -22.898855551060517 0 0 0
1830 2 0 -0.7937005259840997 -23.01731525353889 0 0 0
14361 4 1.129742574581779 -1.1427856165653445 -23.573615096259154 0 1 0
15934 4 21.238940368629756 -0.6869814818762369 -23.570630383041138 0 0 0
15059 4 33.74898771939945 -1.040714963749713 -22.85312030833227 0 0 1
3688 3 38.40920290202328 -0.7937005259840997 -23.01731525353889 0 0 0
14192 4 37.65043875883922 -0.7224021011309005 -22.4254090144371 0 0 0
3686 3 39.18202376951926 -0.7937005259840997 -23.81101577952299 0 0 0
3690 3 39.9548446370151 -0.7937005259840997 -23.01731525353889 0 0 0
31 1 -56.45868321097875 0 -23.81101577952299 0 0 0
32 1 -56.45868321097875 0.7937005259840997 -23.01731525353889 0 0 0
9314 4 -44.18538267057347 0.12396758603380961 -23.280287284821828 0 0 0
11465 4 -37.56367048422565 0.9542320528804715 -22.484000258971484 0 0 0
12753 4 -18.660082861930572 1.219507908984375 -22.982255701214893 0 0 1
1831 2 0 0 -23.81101577952299 0 0 0
1832 2 0 0.7937005259840997 -23.01731525353889 0 0 0
18894 5 36.40928304000587 0.44782630531003925 -23.05843156553375 0 0 1
3691 3 38.40920290202328 1.6062400728877697e-18 -23.81101577952299 0 0 0
3694 3 38.40920290202328 0.7937005259840997 -23.01731525353889 0 0 0
3692 3 39.18202376951926 0.7937005259840997 -23.81101577952299 0 0 0
3693 3 39.18202376951926 -9.525369800438579e-19 -23.01731525353889 0 0 0
3695 3 39.9548446370151 -2.26879795409462e-18 -23.81101577952299 0 0 0
3696 3 39.9548446370151 0.7937005259840997 -23.01731525353889 0 0 0
33 1 -56.45868321097875 1.5874010519681994 -23.81101577952299 0 0 0
34 1 -56.45868321097875 2.381101577952299 -23.01731525353889 0 0 0
13061 4 -55.44919656626699 1.9440970854062838 -22.457536199999367 0 0 0
13544 4 -29.903182338138404 1.5185270137567235 -23.351737896271167 0 0 0
11649 4 -29.24157726032112 2.5324145016162096 -23.72817959878089 0 0 0
13936 4 -22.499899575952245 1.4764724699677279 -23.196281908467473 0 0 1
9508 4 -5.644792253888388 1.7908039280567702 -22.422281183694285 0 0 1
1833 2 0 1.5874010519681994 -23.81101577952299 0 0 0
1834 2 0 2.381101577952299 -23.01731525353889 0 0 0
17132 4 9.511822077212301 1.8210555812009144 -23.804294135954542 0 0 0
17730 4 21.009213632650592 2.248658036407768 -22.757296028825742 0 1 0
18853 5 33.86081716561106 1.4602311712544722 -23.590912661536578 0 0 1
3697 3 38.40920290202328 1.5874010519681994 -23.81101577952299 0 0 0
3700 3 38.40920290202328 2.381101577952299 -23.01731525353889 0 0 0
16352 4 37.25056647529155 2.5342305914494587 -23.636135761299084 0 0 0
3698 3 39.18202376951926 2.381101577952299 -23.81101577952299 0 0 0
3699 3 39.18202376951926 1.5874010519681994 -23.01731525353889 0 0 0
3701 3 39.9548446370151 1.5874010519681994 -23.81101577952299 0 0 0
3702 3 39.9548446370151 2.381101577952299 -23.01731525353889 0 0 0
35 1 -56.45868321097875 3.1748021039363987 -23.81101577952299 0 0 0
36 1 -56.45868321097875 3.9685026299204984 -23.01731525353889 0 0 0
10837 4 -45.04015566700458 3.6601022408138784 -23.701634426918293 0 0 0
9544 4 -31.624883922119018 2.960507575719345 -23.384377694897488 0 0 0
11783 4 -22.79394470073036 3.4535733152873775 -23.070297521027324 0 0 0
10573 4 -2.201944744086504 3.5349767891523105 -23.42267911566807 0 0 0
1835 2 0 3.1748021039363987 -23.81101577952299 0 0 0
1836 2 0 3.9685026299204984 -23.01731525353889 0 0 0
18924 5 33.02943597447315 4.0712969238870595 -22.755313303145265 0 0 1
18999 5 35.67737526418655 3.678811785297631 -23.64776604022697 0 0 1
3703 3 38.40920290202328 3.1748021039363987 -23.81101577952299 0 0 0
3706 3 38.40920290202328 3.9685026299204984 -23.01731525353889 0 0 0
3704 3 39.18202376951926 3.9685026299204984 -23.81101577952299 0 0 0
3705 3 39.18202376951926 3.1748021039363987 -23.01731525353889 0 0 0
3707 3 39.9548446370151 3.1748021039363987 -23.81101577952299 0 0 0
3708 3 39.9548446370151 3.9685026299204984 -23.01731525353889 0 0 0
37 1 -56.45868321097875 4.762203155904598 -23.81101577952299 0 0 0
38 1 -56.45868321097875 5.555903681888697 -23.01731525353889 0 0 0
12100 4 -55.37818814449569 5.062794317765357 -22.514062295148417 0 0 0
12610 4 -34.562814316342774 4.655980877471585 -23.208644940373805 0 0 1
12463 4 -22.383038016313858 5.15077321955182 -23.389758827345364 0 0 1
12541 4 -3.0605413740873213 4.8387459827189705 -22.925067188892925 0 0 1
1837 2 0 4.762203155904598 -23.81101577952299 0 0 0
1838 2 0 5.555903681888697 -23.01731525353889 0 0 0
15712 4 7.69241919178153 5.267284265643147 -23.767529167991576 0 0 1
17559 4 15.458121826586957 4.276145527234526 -22.415898198463893 0 0 0
14517 4 30.887105788307064 5.4168454210597305 -23.423597561230082 0 0 1
15606 4 34.73468456517727 5.364738845940584 -22.568580086885554 0 0 1
15526 4 36.023584477709136 5.286242523281813 -22.48431436945203 0 0 1
3709 3 38.40920290202328 4.762203155904598 -23.81101577952299 0 0 0
3712 3 38.40920290202328 5.555903681888697 -23.01731525353889 0 0 0
15436 4 37.64590504633349 4.718974659933416 -23.04713459844541 0 0 1
3710 3 39.18202376951926 5.555903681888697 -23.81101577952299 0 0 0
3711 3 39.18202376951926 4.762203155904598 -23.01731525353889 0 0 0
3713 3 39.9548446370151 4.762203155904598 -23.81101577952299 0 0 0
3714 3 39.9548446370151 5.555903681888697 -23.01731525353889 0 0 0
39 1 -56.45868321097875 6.3496042078727974 -23.81101577952299 0 0 0
10801 4 -54.977659368717845 6.889580843313511 -23.797332675621714 0 0 0
11900 4 -47.96621978581831 5.706091612047024 -23.684465636591547 0 0 1
11789 4 -47.27786465061202 6.949809574451141 -23.759622804911498 0 0 1
13955 4 -45.403636731899596 5.919547814835357 -22.61866709238895 0 0 1
10899 4 -30.138590648590945 6.92683058757116 -22.935858433951907 0 0 0
13632 4 -11.788280345877048 6.855361286475498 -23.06192825748187 0 0 0
1839 2 0 6.3496042078727974 -23.81101577952299 0 0 0
14204 4 32.97957849783505 5.888127080294958 -23.341617808099276 0 0 0
15242 4 35.61777534499346 6.779029033491045 -23.115326203571975 0 0 1
17234 4 36.859796831613075 5.636853117768316 -23.06777113701891 0 0 1
3715 3 38.40920290202328 6.3496042078727974 -23.81101577952299 0 0 0
3717 3 39.18202376951926 6.3496042078727974 -23.01731525353889 0 0 0
3719 3 39.9548446370151 6.3496042078727974 -23.81101577952299 0 0 0
40 1 -56.45868321097875 7.143304733856898 -23.01731525353889 0 0 0
41 1 -56.45868321097875 7.937005259840997 -23.81101577952299 0 0 0
11347 4 -43.7760629789988 7.623038394966818 -22.8072561687914 0 -1 1
1840 2 0 7.143304733856898 -23.01731525353889 0 0 0
1841 2 0 7.937005259840997 -23.81101577952299 0 0 0
18947 5 23.796780752363983 8.127999895556803 -23.263018461058117 0 0 0
18552 5 26.44678997935995 7.817553434457106 -22.74821571318073 0 0 1
18599 5 35.00115549134207 8.317999630784835 -22.740431319940274 0 -1 1
15615 4 36.54969470784942 7.321063691781733 -23.565297815355905 0 0 0
3718 3 38.40920290202328 7.143304733856898 -23.01731525353889 0 0 0
3721 3 38.40920290202328 7.937005259840997 -23.81101577952299 0 0 0
15410 4 37.34504371828524 7.816416967306653 -22.885073894301378 0 -1 0
3716 3 39.18202376951926 7.143304733856898 -23.81101577952299 0 0 0
3720 3 39.9548446370151 7.143304733856898 -23.01731525353889 0 0 0
3723 3 39.18202376951926 7.937005259840997 -23.01731525353889 0 0 0
3725 3 39.9548446370151 7.937005259840997 -23.81101577952299 0 0 0
42 1 -56.45868321097875 8.730705785825096 -23.01731525353889 0 0 0
43 1 -56.45868321097875 9.524406311809196 -23.81101577952299 0 0 0
10390 4 -52.768038950296486 9.323692293473592 -23.633819069308146 0 -1 1
12255 4 -43.20947905929163 9.675292852500068 -22.472803368732485 0 0 0
11861 4 -39.56915875506926 8.6255870471483 -23.806639622832954 0 0 1
11844 4 -22.49079049062578 9.576598901965276 -23.657338243348708 0 0 0
1842 2 0 8.730705785825096 -23.01731525353889 0 0 0
1843 2 0 9.524406311809196 -23.81101577952299 0 0 0
17163 4 33.14454849956884 9.323981440044058 -23.801118994250853 0 0 1
14929 4 36.79030109679424 8.827742660600691 -22.44896586544402 0 0 0
3724 3 38.40920290202328 8.730705785825096 -23.01731525353889 0 0 0
3727 3 38.40920290202328 9.524406311809196 -23.81101577952299 0 0 0
15550 4 37.56357297774667 9.722863434355839 -22.873125436324123 0 -1 1
3722 3 39.18202376951926 8.730705785825096 -23.81101577952299 0 0 0
3726 3 39.9548446370151 8.730705785825096 -23.01731525353889 0 0 0
3729 3 39.18202376951926 9.524406311809196 -23.01731525353889 0 0 0
3731 3 39.9548446370151 9.524406311809196 -23.81101577952299 0 0 0
44 1 -56.45868321097875 10.318106837793296 -23.01731525353889 0 0 0
45 1 -56.45868321097875 11.111807363777395 -23.81101577952299 0 0 0
12067 4 -28.579398283779625 10.966098927484772 -22.865754191112654 0 0 1
12784 4 -26.24675363663487 10.893663733303617 -22.684916475414393 0 0 1
10201 4 -19.032699876350122 10.53007706687552 -22.80140013790681 0 0 0
13611 4 -9.843415054817267 10.82757046728634 -22.758011908180126 0 -1 0
1844 2 0 10.318106837793296 -23.01731525353889 0 0 0