1931
Atoms. Timestep: 0
1 2.4 7.2 4.8
1 7.2 7.2 4.8
1 4.8 7.2 7.2
1 12 7.2 4.8
1 9.6 7.2 7.2
1 16.8 7.2 4.8
1 14.4 7.2 7.2
1 21.6 7.2 4.8
1 19.2 7.2 7.2
1 26.4 7.2 4.8
1 24 7.2 7.2
1 31.2 7.2 4.8
1 28.8 7.2 7.2
1 2.4 12 4.8
1 2.4 9.6 7.2
1 4.8 9.6 4.8
1 7.2 12 4.8
1 7.2 9.6 7.2
1 4.8 12 7.2
1 9.6 9.6 4.8
1 12 12 4.8
1 12 9.6 7.2
1 9.6 12 7.2
1 14.4 9.6 4.8
1 16.8 12 4.8
1 16.8 9.6 7.2
1 14.4 12 7.2
1 19.2 9.6 4.8
1 21.6 12 4.8
1 21.6 9.6 7.2
1 19.2 12 7.2
1 24 9.6 4.8
1 26.4 12 4.8
1 26.4 9.6 7.2
1 24 12 7.2
1 28.8 9.6 4.8
1 31.2 12 4.8
1 31.2 9.6 7.2
1 28.8 12 7.2
1 2.4 16.8 4.8
1 2.4 14.4 7.2
1 4.8 14.4 4.8
1 7.2 16.8 4.8
1 7.2 14.4 7.2
1 4.8 16.8 7.2
1 9.6 14.4 4.8
1 12 16.8 4.8
1 12 14.4 7.2
1 9.6 16.8 7.2
1 14.4 14.4 4.8
1 16.8 16.8 4.8
1 16.8 14.4 7.2
1 14.4 16.8 7.2
1 19.2 14.4 4.8
1 21.6 16.8 4.8
1 21.6 14.4 7.2
1 19.2 16.8 7.2
1 24 14.4 4.8
1 26.4 16.8 4.8
1 26.4 14.4 7.2
1 24 16.8 7.2
1 28.8 14.4 4.8
1 31.2 16.8 4.8
1 31.2 14.4 7.2
1 28.8 16.8 7.2
1 2.4 21.6 4.8
1 2.4 19.2 7.2
1 4.8 19.2 4.8
1 7.2 21.6 4.8
1 7.2 19.2 7.2
1 4.8 21.6 7.2
1 9.6 19.2 4.8
1 12 21.6 4.8
1 12 19.2 7.2
1 9.6 21.6 7.2
1 14.4 19.2 4.8
1 16.8 21.6 4.8
1 16.8 19.2 7.2
1 14.4 21.6 7.2
1 19.2 19.2 4.8
1 21.6 21.6 4.8
1 21.6 19.2 7.2
1 19.2 21.6 7.2
1 24 19.2 4.8
1 26.4 21.6 4.8
1 26.4 19.2 7.2
1 24 21.6 7.2
1 28.8 19.2 4.8
1 31.2 21.6 4.8
1 31.2 19.2 7.2
1 28.8 21.6 7.2
1 2.4 26.4 4.8
1 2.4 24 7.2
1 4.8 24 4.8
1 7.2 26.4 4.8
1 7.2 24 7.2
1 4.8 26.4 7.2
1 9.6 24 4.8
1 12 26.4 4.8
1 12 24 7.2
1 9.6 26.4 7.2
1 14.4 24 4.8
1 16.8 26.4 4.8
1 16.8 24 7.2
1 14.4 26.4 7.2
1 19.2 24 4.8
1 21.6 26.4 4.8
1 21.6 24 7.2
1 19.2 26.4 7.2
1 24 24 4.8
1 26.4 26.4 4.8
1 26.4 24 7.2
1 24 26.4 7.2
1 28.8 24 4.8
1 31.2 26.4 4.8
1 31.2 24 7.2
1 28.8 26.4 7.2
1 2.4 31.2 4.8
1 2.4 28.8 7.2
1 4.8 28.8 4.8
1 7.2 31.2 4.8
1 7.2 28.8 7.2
1 4.8 31.2 7.2
1 9.6 28.8 4.8
1 12 31.2 4.8
1 12 28.8 7.2
1 9.6 31.2 7.2
1 14.4 28.8 4.8
1 16.8 31.2 4.8
1 16.8 28.8 7.2
1 14.4 31.2 7.2
1 19.2 28.8 4.8
1 21.6 31.2 4.8
1 21.6 28.8 7.2
1 19.2 31.2 7.2
1 24 28.8 4.8
1 26.4 31.2 4.8
1 26.4 28.8 7.2
1 24 31.2 7.2
1 28.8 28.8 4.8
1 31.2 31.2 4.8
1 31.2 28.8 7.2
1 28.8 31.2 7.2
1 2.4 7.2 9.6
1 7.2 7.2 9.6
1 4.8 7.2 12
1 12 7.2 9.6
1 9.6 7.2 12
1 16.8 7.2 9.6
1 14.4 7.2 12
1 21.6 7.2 9.6
1 19.2 7.2 12
1 26.4 7.2 9.6
1 24 7.2 12
1 31.2 7.2 9.6
1 28.8 7.2 12
1 2.4 12 9.6
1 2.4 9.6 12
1 4.8 9.6 9.6
1 7.2 12 9.6
1 7.2 9.6 12
1 4.8 12 12
1 9.6 9.6 9.6
1 12 12 9.6
1 12 9.6 12
1 9.6 12 12
1 14.4 9.6 9.6
1 16.8 12 9.6
1 16.8 9.6 12
1 14.4 12 12
1 19.2 9.6 9.6
1 21.6 12 9.6
1 21.6 9.6 12
1 19.2 12 12
1 24 9.6 9.6
1 26.4 12 9.6
1 26.4 9.6 12
1 24 12 12
1 28.8 9.6 9.6
1 31.2 12 9.6
1 31.2 9.6 12
1 28.8 12 12
1 2.4 16.8 9.6
1 2.4 14.4 12
1 4.8 14.4 9.6
1 7.2 16.8 9.6
1 7.2 14.4 12
1 4.8 16.8 12
1 9.6 14.4 9.6
1 12 16.8 9.6
1 12 14.4 12
1 9.6 16.8 12
1 14.4 14.4 9.6
1 16.8 16.8 9.6
1 16.8 14.4 12
1 14.4 16.8 12
1 19.2 14.4 9.6
1 21.6 16.8 9.6
1 21.6 14.4 12
1 19.2 16.8 12
1 24 14.4 9.6
1 26.4 16.8 9.6
1 26.4 14.4 12
1 24 16.8 12
1 28.8 14.4 9.6
1 31.2 16.8 9.6
1 31.2 14.4 12
1 28.8 16.8 12
1 2.4 21.6 9.6
1 2.4 19.2 12
1 4.8 19.2 9.6
1 7.2 21.6 9.6
1 7.2 19.2 12
1 4.8 21.6 12
1 9.6 19.2 9.6
1 12 21.6 9.6
1 12 19.2 12
1 9.6 21.6 12
1 14.4 19.2 9.6
1 16.8 21.6 9.6
1 16.8 19.2 12
1 14.4 21.6 12
1 19.2 19.2 9.6
1 21.6 21.6 9.6
1 21.6 19.2 12
1 19.2 21.6 12
1 24 19.2 9.6
1 26.4 21.6 9.6
1 26.4 19.2 12
1 24 21.6 12
1 28.8 19.2 9.6
1 31.2 21.6 9.6
1 31.2 19.2 12
1 28.8 21.6 12
1 2.4 26.4 9.6
1 2.4 24 12
1 4.8 24 9.6
1 7.2 26.4 9.6
1 7.2 24 12
1 4.8 26.4 12
1 9.6 24 9.6
1 12 26.4 9.6
1 12 24 12
1 9.6 26.4 12
1 14.4 24 9.6
1 16.8 26.4 9.6
1 16.8 24 12
1 14.4 26.4 12
1 19.2 24 9.6
1 21.6 26.4 9.6
1 21.6 24 12
1 19.2 26.4 12
1 24 24 9.6
1 26.4 26.4 9.6
1 26.4 24 12
1 24 26.4 12
1 28.8 24 9.6
1 31.2 26.4 9.6
1 31.2 24 12
1 28.8 26.4 12
1 2.4 31.2 9.6
1 2.4 28.8 12
1 4.8 28.8 9.6
1 7.2 31.2 9.6
1 7.2 28.8 12
1 4.8 31.2 12
1 9.6 28.8 9.6
1 12 31.2 9.6
1 12 28.8 12
1 9.6 31.2 12
1 14.4 28.8 9.6
1 16.8 31.2 9.6
1 16.8 28.8 12
1 14.4 31.2 12
1 19.2 28.8 9.6
1 21.6 31.2 9.6
1 21.6 28.8 12
1 19.2 31.2 12
1 24 28.8 9.6
1 26.4 31.2 9.6
1 26.4 28.8 12
1 24 31.2 12
1 28.8 28.8 9.6
1 31.2 31.2 9.6
1 31.2 28.8 12
1 28.8 31.2 12
1 2.4 7.2 14.4
1 7.2 7.2 14.4
1 4.8 7.2 16.8
1 12 7.2 14.4
1 9.6 7.2 16.8
1 16.8 7.2 14.4
1 14.4 7.2 16.8
1 21.6 7.2 14.4
1 19.2 7.2 16.8
1 26.4 7.2 14.4
1 24 7.2 16.8
1 31.2 7.2 14.4
1 28.8 7.2 16.8
1 2.4 12 14.4
1 2.4 9.6 16.8
1 4.8 9.6 14.4
1 7.2 12 14.4
1 7.2 9.6 16.8
1 4.8 12 16.8
1 9.6 9.6 14.4
1 12 12 14.4
1 12 9.6 16.8
1 9.6 12 16.8
1 14.4 9.6 14.4
1 16.8 12 14.4
1 16.8 9.6 16.8
1 14.4 12 16.8
1 19.2 9.6 14.4
1 21.6 12 14.4
1 21.6 9.6 16.8
1 19.2 12 16.8
1 24 9.6 14.4
1 26.4 12 14.4
1 26.4 9.6 16.8
1 24 12 16.8
1 28.8 9.6 14.4
1 31.2 12 14.4
1 31.2 9.6 16.8
1 28.8 12 16.8
1 2.4 16.8 14.4
1 2.4 14.4 16.8
1 4.8 14.4 14.4
1 7.2 16.8 14.4
1 7.2 14.4 16.8
1 4.8 16.8 16.8
1 9.6 14.4 14.4
1 12 16.8 14.4
1 12 14.4 16.8
1 9.6 16.8 16.8
1 14.4 14.4 14.4
1 16.8 16.8 14.4
1 16.8 14.4 16.8
1 14.4 16.8 16.8
1 19.2 14.4 14.4
1 21.6 16.8 14.4
1 21.6 14.4 16.8
1 19.2 16.8 16.8
1 24 14.4 14.4
1 26.4 16.8 14.4
1 26.4 14.4 16.8
1 24 16.8 16.8
1 28.8 14.4 14.4
1 31.2 16.8 14.4
1 31.2 14.4 16.8
1 28.8 16.8 16.8
1 2.4 21.6 14.4
1 2.4 19.2 16.8
1 4.8 19.2 14.4
1 7.2 21.6 14.4
1 7.2 19.2 16.8
1 4.8 21.6 16.8
1 9.6 19.2 14.4
1 12 21.6 14.4
1 12 19.2 16.8
1 9.6 21.6 16.8
1 14.4 19.2 14.4
1 16.8 21.6 14.4
1 16.8 19.2 16.8
1 14.4 21.6 16.8
1 19.2 19.2 14.4
1 21.6 21.6 14.4
1 21.6 19.2 16.8
1 19.2 21.6 16.8
1 24 19.2 14.4
1 26.4 21.6 14.4
1 26.4 19.2 16.8
1 24 21.6 16.8
1 28.8 19.2 14.4
1 31.2 21.6 14.4
1 31.2 19.2 16.8
1 28.8 21.6 16.8
1 2.4 26.4 14.4
1 2.4 24 16.8
1 4.8 24 14.4
1 7.2 26.4 14.4
1 7.2 24 16.8
1 4.8 26.4 16.8
1 9.6 24 14.4
1 12 26.4 14.4
1 12 24 16.8
1 9.6 26.4 16.8
1 14.4 24 14.4
1 16.8 26.4 14.4
1 16.8 24 16.8
1 14.4 26.4 16.8
1 19.2 24 14.4
1 21.6 26.4 14.4
1 21.6 24 16.8
1 19.2 26.4 16.8
1 24 24 14.4
1 26.4 26.4 14.4
1 26.4 24 16.8
1 24 26.4 16.8
1 28.8 24 14.4
1 31.2 26.4 14.4
1 31.2 24 16.8
1 28.8 26.4 16.8
1 2.4 31.2 14.4
1 2.4 28.8 16.8
1 4.8 28.8 14.4
1 7.2 31.2 14.4
1 7.2 28.8 16.8
1 4.8 31.2 16.8
1 9.6 28.8 14.4
1 12 31.2 14.4
1 12 28.8 16.8
1 9.6 31.2 16.8
1 14.4 28.8 14.4
1 16.8 31.2 14.4
1 16.8 28.8 16.8
1 14.4 31.2 16.8
1 19.2 28.8 14.4
1 21.6 31.2 14.4
1 21.6 28.8 16.8
1 19.2 31.2 16.8
1 24 28.8 14.4
1 26.4 31.2 14.4
1 26.4 28.8 16.8
1 24 31.2 16.8
1 28.8 28.8 14.4
1 31.2 31.2 14.4
1 31.2 28.8 16.8
1 28.8 31.2 16.8
1 2.4 7.2 19.2
1 7.2 7.2 19.2
1 4.8 7.2 21.6
1 12 7.2 19.2
1 9.6 7.2 21.6
1 16.8 7.2 19.2
1 14.4 7.2 21.6
1 21.6 7.2 19.2
1 19.2 7.2 21.6
1 26.4 7.2 19.2
1 24 7.2 21.6
1 31.2 7.2 19.2
1 28.8 7.2 21.6
1 2.4 12 19.2
1 2.4 9.6 21.6
1 4.8 9.6 19.2
1 7.2 12 19.2
1 7.2 9.6 21.6
1 4.8 12 21.6
1 9.6 9.6 19.2
1 12 12 19.2
1 12 9.6 21.6
1 9.6 12 21.6
1 14.4 9.6 19.2
1 16.8 12 19.2
1 16.8 9.6 21.6
1 14.4 12 21.6
1 19.2 9.6 19.2
1 21.6 12 19.2
1 21.6 9.6 21.6
1 19.2 12 21.6
1 24 9.6 19.2
1 26.4 12 19.2
1 26.4 9.6 21.6
1 24 12 21.6
1 28.8 9.6 19.2
1 31.2 12 19.2
1 31.2 9.6 21.6
1 28.8 12 21.6
1 2.4 16.8 19.2
1 2.4 14.4 21.6
1 4.8 14.4 19.2
1 7.2 16.8 19.2
1 7.2 14.4 21.6
1 4.8 16.8 21.6
1 9.6 14.4 19.2
1 12 16.8 19.2
1 12 14.4 21.6
1 9.6 16.8 21.6
1 14.4 14.4 19.2
1 16.8 16.8 19.2
1 16.8 14.4 21.6
1 14.4 16.8 21.6
1 19.2 14.4 19.2
1 21.6 16.8 19.2
1 21.6 14.4 21.6
1 19.2 16.8 21.6
1 24 14.4 19.2
1 26.4 16.8 19.2
1 26.4 14.4 21.6
1 24 16.8 21.6
1 28.8 14.4 19.2
1 31.2 16.8 19.2
1 31.2 14.4 21.6
1 28.8 16.8 21.6
1 2.4 21.6 19.2
1 2.4 19.2 21.6
1 4.8 19.2 19.2
1 7.2 21.6 19.2
1 7.2 19.2 21.6
1 4.8 21.6 21.6
1 9.6 19.2 19.2
1 12 21.6 19.2
1 12 19.2 21.6
1 9.6 21.6 21.6
1 14.4 19.2 19.2
1 16.8 21.6 19.2
1 16.8 19.2 21.6
1 14.4 21.6 21.6
1 19.2 19.2 19.2
1 21.6 21.6 19.2
1 21.6 19.2 21.6
1 19.2 21.6 21.6
1 24 19.2 19.2
1 26.4 21.6 19.2
1 26.4 19.2 21.6
1 24 21.6 21.6
1 28.8 19.2 19.2
1 31.2 21.6 19.2
1 31.2 19.2 21.6
1 28.8 21.6 21.6
1 2.4 26.4 19.2
1 2.4 24 21.6
1 4.8 24 19.2
1 7.2 26.4 19.2
1 7.2 24 21.6
1 4.8 26.4 21.6
1 9.6 24 19.2
1 12 26.4 19.2
1 12 24 21.6
1 9.6 26.4 21.6
1 14.4 24 19.2
1 16.8 26.4 19.2
1 16.8 24 21.6
1 14.4 26.4 21.6
1 19.2 24 19.2
1 21.6 26.4 19.2
1 21.6 24 21.6
1 19.2 26.4 21.6
1 24 24 19.2
1 26.4 26.4 19.2
1 26.4 24 21.6
1 24 26.4 21.6
1 28.8 24 19.2
1 31.2 26.4 19.2
1 31.2 24 21.6
1 28.8 26.4 21.6
1 2.4 31.2 19.2
1 2.4 28.8 21.6
1 4.8 28.8 19.2
1 7.2 31.2 19.2
1 7.2 28.8 21.6
1 4.8 31.2 21.6
1 9.6 28.8 19.2
1 12 31.2 19.2
1 12 28.8 21.6
1 9.6 31.2 21.6
1 14.4 28.8 19.2
1 16.8 31.2 19.2
1 16.8 28.8 21.6
1 14.4 31.2 21.6
1 19.2 28.8 19.2
1 21.6 31.2 19.2
1 21.6 28.8 21.6
1 19.2 31.2 21.6
1 24 28.8 19.2
1 26.4 31.2 19.2
1 26.4 28.8 21.6
1 24 31.2 21.6
1 28.8 28.8 19.2
1 31.2 31.2 19.2
1 31.2 28.8 21.6
1 28.8 31.2 21.6
1 2.4 7.2 24
1 7.2 7.2 24
1 4.8 7.2 26.4
1 12 7.2 24
1 9.6 7.2 26.4
1 16.8 7.2 24
1 14.4 7.2 26.4
1 21.6 7.2 24
1 19.2 7.2 26.4
1 26.4 7.2 24
1 24 7.2 26.4
1 31.2 7.2 24
1 28.8 7.2 26.4
1 2.4 12 24
1 2.4 9.6 26.4
1 4.8 9.6 24
1 7.2 12 24
1 7.2 9.6 26.4
1 4.8 12 26.4
1 9.6 9.6 24
1 12 12 24
1 12 9.6 26.4
1 9.6 12 26.4
1 14.4 9.6 24
1 16.8 12 24
1 16.8 9.6 26.4
1 14.4 12 26.4
1 19.2 9.6 24
1 21.6 12 24
1 21.6 9.6 26.4
1 19.2 12 26.4
1 24 9.6 24
1 26.4 12 24
1 26.4 9.6 26.4
1 24 12 26.4
1 28.8 9.6 24
1 31.2 12 24
1 31.2 9.6 26.4
1 28.8 12 26.4
1 2.4 16.8 24
1 2.4 14.4 26.4
1 4.8 14.4 24
1 7.2 16.8 24
1 7.2 14.4 26.4
1 4.8 16.8 26.4
1 9.6 14.4 24
1 12 16.8 24
1 12 14.4 26.4
1 9.6 16.8 26.4
1 14.4 14.4 24
1 16.8 16.8 24
1 16.8 14.4 26.4
1 14.4 16.8 26.4
1 19.2 14.4 24
1 21.6 16.8 24
1 21.6 14.4 26.4
1 19.2 16.8 26.4
1 24 14.4 24
1 26.4 16.8 24
1 26.4 14.4 26.4
1 24 16.8 26.4
1 28.8 14.4 24
1 31.2 16.8 24
1 31.2 14.4 26.4
1 28.8 16.8 26.4
1 2.4 21.6 24
1 2.4 19.2 26.4
1 4.8 19.2 24
1 7.2 21.6 24
1 7.2 19.2 26.4
1 4.8 21.6 26.4
1 9.6 19.2 24
1 12 21.6 24
1 12 19.2 26.4
1 9.6 21.6 26.4
1 14.4 19.2 24
1 16.8 21.6 24
1 16.8 19.2 26.4
1 14.4 21.6 26.4
1 19.2 19.2 24
1 21.6 21.6 24
1 21.6 19.2 26.4
1 19.2 21.6 26.4
1 24 19.2 24
1 26.4 21.6 24
1 26.4 19.2 26.4
1 24 21.6 26.4
1 28.8 19.2 24
1 31.2 21.6 24
1 31.2 19.2 26.4
1 28.8 21.6 26.4
1 2.4 26.4 24
1 2.4 24 26.4
1 4.8 24 24
1 7.2 26.4 24
1 7.2 24 26.4
1 4.8 26.4 26.4
1 9.6 24 24
1 12 26.4 24
1 12 24 26.4
1 9.6 26.4 26.4
1 14.4 24 24
1 16.8 26.4 24
1 16.8 24 26.4
1 14.4 26.4 26.4
1 19.2 24 24
1 21.6 26.4 24
1 21.6 24 26.4
1 19.2 26.4 26.4
1 24 24 24
1 26.4 26.4 24
1 26.4 24 26.4
1 24 26.4 26.4
1 28.8 24 24
1 31.2 26.4 24
1 31.2 24 26.4
1 28.8 26.4 26.4
1 2.4 31.2 24
1 2.4 28.8 26.4
1 4.8 28.8 24
1 7.2 31.2 24
1 7.2 28.8 26.4
1 4.8 31.2 26.4
1 9.6 28.8 24
1 12 31.2 24
1 12 28.8 26.4
1 9.6 31.2 26.4
1 14.4 28.8 24
1 16.8 31.2 24
1 16.8 28.8 26.4
1 14.4 31.2 26.4
1 19.2 28.8 24
1 21.6 31.2 24
1 21.6 28.8 26.4
1 19.2 31.2 26.4
1 24 28.8 24
1 26.4 31.2 24
1 26.4 28.8 26.4
1 24 31.2 26.4
1 28.8 28.8 24
1 31.2 31.2 24
1 31.2 28.8 26.4
1 28.8 31.2 26.4
1 2.4 7.2 28.8
1 7.2 7.2 28.8
1 4.8 7.2 31.2
1 12 7.2 28.8
1 9.6 7.2 31.2
1 16.8 7.2 28.8
1 14.4 7.2 31.2
1 21.6 7.2 28.8
1 19.2 7.2 31.2
1 26.4 7.2 28.8
1 24 7.2 31.2
1 31.2 7.2 28.8
1 28.8 7.2 31.2
1 2.4 12 28.8
1 2.4 9.6 31.2
1 4.8 9.6 28.8
1 7.2 12 28.8
1 7.2 9.6 31.2
1 4.8 12 31.2
1 9.6 9.6 28.8
1 12 12 28.8
1 12 9.6 31.2
1 9.6 12 31.2
1 14.4 9.6 28.8
1 16.8 12 28.8
1 16.8 9.6 31.2
1 14.4 12 31.2
1 19.2 9.6 28.8
1 21.6 12 28.8
1 21.6 9.6 31.2
1 19.2 12 31.2
1 24 9.6 28.8
1 26.4 12 28.8
1 26.4 9.6 31.2
1 24 12 31.2
1 28.8 9.6 28.8
1 31.2 12 28.8
1 31.2 9.6 31.2
1 28.8 12 31.2
1 2.4 16.8 28.8
1 2.4 14.4 31.2
1 4.8 14.4 28.8
1 7.2 16.8 28.8
1 7.2 14.4 31.2
1 4.8 16.8 31.2
1 9.6 14.4 28.8
1 12 16.8 28.8
1 12 14.4 31.2
1 9.6 16.8 31.2
1 14.4 14.4 28.8
1 16.8 16.8 28.8
1 16.8 14.4 31.2
1 14.4 16.8 31.2
1 19.2 14.4 28.8
1 21.6 16.8 28.8
1 21.6 14.4 31.2
1 19.2 16.8 31.2
1 24 14.4 28.8
1 26.4 16.8 28.8
1 26.4 14.4 31.2
1 24 16.8 31.2
1 28.8 14.4 28.8
1 31.2 16.8 28.8
1 31.2 14.4 31.2
1 28.8 16.8 31.2
1 2.4 21.6 28.8
1 2.4 19.2 31.2
1 4.8 19.2 28.8
1 7.2 21.6 28.8
1 7.2 19.2 31.2
1 4.8 21.6 31.2
1 9.6 19.2 28.8
1 12 21.6 28.8
1 12 19.2 31.2
1 9.6 21.6 31.2
1 14.4 19.2 28.8
1 16.8 21.6 28.8
1 16.8 19.2 31.2
1 14.4 21.6 31.2
1 19.2 19.2 28.8
1 21.6 21.6 28.8
1 21.6 19.2 31.2
1 19.2 21.6 31.2
1 24 19.2 28.8
1 26.4 21.6 28.8
1 26.4 19.2 31.2
1 24 21.6 31.2
1 28.8 19.2 28.8
1 31.2 21.6 28.8
1 31.2 19.2 31.2
1 28.8 21.6 31.2
1 2.4 26.4 28.8
1 2.4 24 31.2
1 4.8 24 28.8
1 7.2 26.4 28.8
1 7.2 24 31.2
1 4.8 26.4 31.2
1 9.6 24 28.8
1 12 26.4 28.8
1 12 24 31.2
1 9.6 26.4 31.2
1 14.4 24 28.8
1 16.8 26.4 28.8
1 16.8 24 31.2
1 14.4 26.4 31.2
1 19.2 24 28.8
1 21.6 26.4 28.8
1 21.6 24 31.2
1 19.2 26.4 31.2
1 24 24 28.8
1 26.4 26.4 28.8
1 26.4 24 31.2
1 24 26.4 31.2
1 28.8 24 28.8
1 31.2 26.4 28.8
1 31.2 24 31.2
1 28.8 26.4 31.2
1 2.4 31.2 28.8
1 2.4 28.8 31.2
1 4.8 28.8 28.8
1 7.2 31.2 28.8
1 7.2 28.8 31.2
1 4.8 31.2 31.2
1 9.6 28.8 28.8
1 12 31.2 28.8
1 12 28.8 31.2
1 9.6 31.2 31.2
1 14.4 28.8 28.8
1 16.8 31.2 28.8
1 16.8 28.8 31.2
1 14.4 31.2 31.2
1 19.2 28.8 28.8
1 21.6 31.2 28.8
1 21.6 28.8 31.2
1 19.2 31.2 31.2
1 24 28.8 28.8
1 26.4 31.2 28.8
1 26.4 28.8 31.2
1 24 31.2 31.2
1 28.8 28.8 28.8
1 31.2 31.2 28.8
1 31.2 28.8 31.2
1 28.8 31.2 31.2
1 2.4 7.2 33.6
1 7.2 7.2 33.6
1 4.8 7.2 36
1 12 7.2 33.6
1 9.6 7.2 36
1 16.8 7.2 33.6
1 14.4 7.2 36
1 21.6 7.2 33.6
1 19.2 7.2 36
1 26.4 7.2 33.6
1 24 7.2 36
1 31.2 7.2 33.6
1 28.8 7.2 36
1 2.4 12 33.6
1 2.4 9.6 36
1 4.8 9.6 33.6
1 7.2 12 33.6
1 7.2 9.6 36
1 4.8 12 36
1 9.6 9.6 33.6
1 12 12 33.6
1 12 9.6 36
1 9.6 12 36
1 14.4 9.6 33.6
1 16.8 12 33.6
1 16.8 9.6 36
1 14.4 12 36
1 19.2 9.6 33.6
1 21.6 12 33.6
1 21.6 9.6 36
1 19.2 12 36
1 24 9.6 33.6
1 26.4 12 33.6
1 26.4 9.6 36
1 24 12 36
1 28.8 9.6 33.6
1 31.2 12 33.6
1 31.2 9.6 36
1 28.8 12 36
1 2.4 16.8 33.6
1 2.4 14.4 36
1 4.8 14.4 33.6
1 7.2 16.8 33.6
1 7.2 14.4 36
1 4.8 16.8 36
1 9.6 14.4 33.6
1 12 16.8 33.6
1 12 14.4 36
1 9.6 16.8 36
1 14.4 14.4 33.6
1 16.8 16.8 33.6
1 16.8 14.4 36
1 14.4 16.8 36
1 19.2 14.4 33.6
1 21.6 16.8 33.6
1 21.6 14.4 36
1 19.2 16.8 36
1 24 14.4 33.6
1 26.4 16.8 33.6
1 26.4 14.4 36
1 24 16.8 36
1 28.8 14.4 33.6
1 31.2 16.8 33.6
1 31.2 14.4 36
1 28.8 16.8 36
1 2.4 21.6 33.6
1 2.4 19.2 36
1 4.8 19.2 33.6
1 7.2 21.6 33.6
1 7.2 19.2 36
1 4.8 21.6 36
1 9.6 19.2 33.6
1 12 21.6 33.6
1 12 19.2 36
1 9.6 21.6 36
1 14.4 19.2 33.6
1 16.8 21.6 33.6
1 16.8 19.2 36
1 14.4 21.6 36
1 19.2 19.2 33.6
1 21.6 21.6 33.6
1 21.6 19.2 36
1 19.2 21.6 36
1 24 19.2 33.6
1 26.4 21.6 33.6
1 26.4 19.2 36
1 24 21.6 36
1 28.8 19.2 33.6
1 31.2 21.6 33.6
1 31.2 19.2 36
1 28.8 21.6 36
1 2.4 26.4 33.6
1 2.4 24 36
1 4.8 24 33.6
1 7.2 26.4 33.6
1 7.2 24 36
1 4.8 26.4 36
1 9.6 24 33.6
1 12 26.4 33.6
1 12 24 36
1 9.6 26.4 36
1 14.4 24 33.6
1 16.8 26.4 33.6
1 16.8 24 36
1 14.4 26.4 36
1 19.2 24 33.6
1 21.6 26.4 33.6
1 21.6 24 36
1 19.2 26.4 36
1 24 24 33.6
1 26.4 26.4 33.6
1 26.4 24 36
1 24 26.4 36
1 28.8 24 33.6
1 31.2 26.4 33.6
1 31.2 24 36
1 28.8 26.4 36
1 2.4 31.2 33.6
1 2.4 28.8 36
1 4.8 28.8 33.6
1 7.2 31.2 33.6
1 7.2 28.8 36
1 4.8 31.2 36
1 9.6 28.8 33.6
1 12 31.2 33.6
1 12 28.8 36
1 9.6 31.2 36
1 14.4 28.8 33.6
1 16.8 31.2 33.6
1 16.8 28.8 36
1 14.4 31.2 36
1 19.2 28.8 33.6
1 21.6 31.2 33.6
1 21.6 28.8 36
1 19.2 31.2 36
1 24 28.8 33.6
1 26.4 31.2 33.6
1 26.4 28.8 36
1 24 31.2 36
1 28.8 28.8 33.6
1 31.2 31.2 33.6
1 31.2 28.8 36
1 28.8 31.2 36
1 2.4 7.2 38.4
1 7.2 7.2 38.4
1 4.8 7.2 40.8
1 12 7.2 38.4
1 9.6 7.2 40.8
1 16.8 7.2 38.4
1 14.4 7.2 40.8
1 21.6 7.2 38.4
1 19.2 7.2 40.8
1 26.4 7.2 38.4
1 24 7.2 40.8
1 31.2 7.2 38.4
1 28.8 7.2 40.8
1 2.4 12 38.4
1 2.4 9.6 40.8
1 4.8 9.6 38.4
1 7.2 12 38.4
1 7.2 9.6 40.8
1 4.8 12 40.8
1 9.6 9.6 38.4
1 12 12 38.4
1 12 9.6 40.8
1 9.6 12 40.8
1 14.4 9.6 38.4
1 16.8 12 38.4
1 16.8 9.6 40.8
1 14.4 12 40.8
1 19.2 9.6 38.4
1 21.6 12 38.4
1 21.6 9.6 40.8
1 19.2 12 40.8
1 24 9.6 38.4
1 26.4 12 38.4
1 26.4 9.6 40.8
1 24 12 40.8
1 28.8 9.6 38.4
1 31.2 12 38.4
1 31.2 9.6 40.8
1 28.8 12 40.8
1 2.4 16.8 38.4
1 2.4 14.4 40.8
1 4.8 14.4 38.4
1 7.2 16.8 38.4
1 7.2 14.4 40.8
1 4.8 16.8 40.8
1 9.6 14.4 38.4
1 12 16.8 38.4
1 12 14.4 40.8
1 9.6 16.8 40.8
1 14.4 14.4 38.4
1 16.8 16.8 38.4
1 16.8 14.4 40.8
1 14.4 16.8 40.8
1 19.2 14.4 38.4
1 21.6 16.8 38.4
1 21.6 14.4 40.8
1 19.2 16.8 40.8
1 24 14.4 38.4
1 26.4 16.8 38.4
1 26.4 14.4 40.8
1 24 16.8 40.8
1 28.8 14.4 38.4
1 31.2 16.8 38.4
1 31.2 14.4 40.8
1 28.8 16.8 40.8
1 2.4 21.6 38.4
1 2.4 19.2 40.8
1 4.8 19.2 38.4
1 7.2 21.6 38.4
1 7.2 19.2 40.8
1 4.8 21.6 40.8
1 9.6 19.2 38.4
1 12 21.6 38.4
1 12 19.2 40.8
1 9.6 21.6 40.8
1 14.4 19.2 38.4
1 16.8 21.6 38.4
1 16.8 19.2 40.8
1 14.4 21.6 40.8
1 19.2 19.2 38.4
1 21.6 21.6 38.4
1 21.6 19.2 40.8
1 19.2 21.6 40.8
1 24 19.2 38.4
1 26.4 21.6 38.4
1 26.4 19.2 40.8
1 24 21.6 40.8
1 28.8 19.2 38.4
1 31.2 21.6 38.4
1 31.2 19.2 40.8
1 28.8 21.6 40.8
1 2.4 26.4 38.4
1 2.4 24 40.8
1 4.8 24 38.4
1 7.2 26.4 38.4
1 7.2 24 40.8
1 4.8 26.4 40.8
1 9.6 24 38.4
1 12 26.4 38.4
1 12 24 40.8
1 9.6 26.4 40.8
1 14.4 24 38.4
1 16.8 26.4 38.4
1 16.8 24 40.8
1 14.4 26.4 40.8
1 19.2 24 38.4
1 21.6 26.4 38.4
1 21.6 24 40.8
1 19.2 26.4 40.8
1 24 24 38.4
1 26.4 26.4 38.4
1 26.4 24 40.8
1 24 26.4 40.8
1 28.8 24 38.4
1 31.2 26.4 38.4
1 31.2 24 40.8
1 28.8 26.4 40.8
1 2.4 31.2 38.4
1 2.4 28.8 40.8
1 4.8 28.8 38.4
1 7.2 31.2 38.4
1 7.2 28.8 40.8
1 4.8 31.2 40.8
1 9.6 28.8 38.4
1 12 31.2 38.4
1 12 28.8 40.8
1 9.6 31.2 40.8
1 14.4 28.8 38.4
1 16.8 31.2 38.4
1 16.8 28.8 40.8
1 14.4 31.2 40.8
1 19.2 28.8 38.4
1 21.6 31.2 38.4
1 21.6 28.8 40.8
1 19.2 31.2 40.8
1 24 28.8 38.4
1 26.4 31.2 38.4
1 26.4 28.8 40.8
1 24 31.2 40.8
1 28.8 28.8 38.4
1 31.2 31.2 38.4
1 31.2 28.8 40.8
1 28.8 31.2 40.8
1 2.4 7.2 43.2
1 7.2 7.2 43.2
1 4.8 7.2 45.6
1 12 7.2 43.2
1 9.6 7.2 45.6
1 16.8 7.2 43.2
1 14.4 7.2 45.6
1 21.6 7.2 43.2
1 19.2 7.2 45.6
1 26.4 7.2 43.2
1 24 7.2 45.6
1 31.2 7.2 43.2
1 28.8 7.2 45.6
1 2.4 12 43.2
1 2.4 9.6 45.6
1 4.8 9.6 43.2
1 7.2 12 43.2
1 7.2 9.6 45.6
1 4.8 12 45.6
1 9.6 9.6 43.2
1 12 12 43.2
1 12 9.6 45.6
1 9.6 12 45.6
1 14.4 9.6 43.2
1 16.8 12 43.2
1 16.8 9.6 45.6
1 14.4 12 45.6
1 19.2 9.6 43.2
1 21.6 12 43.2
1 21.6 9.6 45.6
1 19.2 12 45.6
1 24 9.6 43.2
1 26.4 12 43.2
1 26.4 9.6 45.6
1 24 12 45.6
1 28.8 9.6 43.2
1 31.2 12 43.2
1 31.2 9.6 45.6
1 28.8 12 45.6
1 2.4 16.8 43.2
1 2.4 14.4 45.6
1 4.8 14.4 43.2
1 7.2 16.8 43.2
1 7.2 14.4 45.6
1 4.8 16.8 45.6
1 9.6 14.4 43.2
1 12 16.8 43.2
1 12 14.4 45.6
1 9.6 16.8 45.6
1 14.4 14.4 43.2
1 16.8 16.8 43.2
1 16.8 14.4 45.6
1 14.4 16.8 45.6
1 19.2 14.4 43.2
1 21.6 16.8 43.2
1 21.6 14.4 45.6
1 19.2 16.8 45.6
1 24 14.4 43.2
1 26.4 16.8 43.2
1 26.4 14.4 45.6
1 24 16.8 45.6
1 28.8 14.4 43.2
1 31.2 16.8 43.2
1 31.2 14.4 45.6
1 28.8 16.8 45.6
1 2.4 21.6 43.2
1 2.4 19.2 45.6
1 4.8 19.2 43.2
1 7.2 21.6 43.2
1 7.2 19.2 45.6
1 4.8 21.6 45.6
1 9.6 19.2 43.2
1 12 21.6 43.2
1 12 19.2 45.6
1 9.6 21.6 45.6
1 14.4 19.2 43.2
1 16.8 21.6 43.2
1 16.8 19.2 45.6
1 14.4 21.6 45.6
1 19.2 19.2 43.2
1 21.6 21.6 43.2
1 21.6 19.2 45.6
1 19.2 21.6 45.6
1 24 19.2 43.2
1 26.4 21.6 43.2
1 26.4 19.2 45.6
1 24 21.6 45.6
1 28.8 19.2 43.2
1 31.2 21.6 43.2
1 31.2 19.2 45.6
1 28.8 21.6 45.6
1 2.4 26.4 43.2
1 2.4 24 45.6
1 4.8 24 43.2
1 7.2 26.4 43.2
1 7.2 24 45.6
1 4.8 26.4 45.6
1 9.6 24 43.2
1 12 26.4 43.2
1 12 24 45.6
1 9.6 26.4 45.6
1 14.4 24 43.2
1 16.8 26.4 43.2
1 16.8 24 45.6
1 14.4 26.4 45.6
1 19.2 24 43.2
1 21.6 26.4 43.2
1 21.6 24 45.6
1 19.2 26.4 45.6
1 24 24 43.2
1 26.4 26.4 43.2
1 26.4 24 45.6
1 24 26.4 45.6
1 28.8 24 43.2
1 31.2 26.4 43.2
1 31.2 24 45.6
1 28.8 26.4 45.6
1 2.4 31.2 43.2
1 2.4 28.8 45.6
1 4.8 28.8 43.2
1 7.2 31.2 43.2
1 7.2 28.8 45.6
1 4.8 31.2 45.6
1 9.6 28.8 43.2
1 12 31.2 43.2
1 12 28.8 45.6
1 9.6 31.2 45.6
1 14.4 28.8 43.2
1 16.8 31.2 43.2
1 16.8 28.8 45.6
1 14.4 31.2 45.6
1 19.2 28.8 43.2
1 21.6 31.2 43.2
1 21.6 28.8 45.6
1 19.2 31.2 45.6
1 24 28.8 43.2
1 26.4 31.2 43.2
1 26.4 28.8 45.6
1 24 31.2 45.6
1 28.8 28.8 43.2
1 31.2 31.2 43.2
1 31.2 28.8 45.6
1 28.8 31.2 45.6
1 2.4 7.2 48
1 7.2 7.2 48
1 4.8 7.2 50.4
1 12 7.2 48
1 9.6 7.2 50.4
1 16.8 7.2 48
1 14.4 7.2 50.4
1 21.6 7.2 48
1 19.2 7.2 50.4
1 26.4 7.2 48
1 24 7.2 50.4
1 31.2 7.2 48
1 28.8 7.2 50.4
1 2.4 12 48
1 2.4 9.6 50.4
1 4.8 9.6 48
1 7.2 12 48
1 7.2 9.6 50.4
1 4.8 12 50.4
1 9.6 9.6 48
1 12 12 48
1 12 9.6 50.4
1 9.6 12 50.4
1 14.4 9.6 48
1 16.8 12 48
1 16.8 9.6 50.4
1 14.4 12 50.4
1 19.2 9.6 48
1 21.6 12 48
1 21.6 9.6 50.4
1 19.2 12 50.4
1 24 9.6 48
1 26.4 12 48
1 26.4 9.6 50.4
1 24 12 50.4
1 28.8 9.6 48
1 31.2 12 48
1 31.2 9.6 50.4
1 28.8 12 50.4
1 2.4 16.8 48
1 2.4 14.4 50.4
1 4.8 14.4 48
1 7.2 16.8 48
1 7.2 14.4 50.4
1 4.8 16.8 50.4
1 9.6 14.4 48
1 12 16.8 48
1 12 14.4 50.4
1 9.6 16.8 50.4
1 14.4 14.4 48
1 16.8 16.8 48
1 16.8 14.4 50.4
1 14.4 16.8 50.4
1 19.2 14.4 48
1 21.6 16.8 48
1 21.6 14.4 50.4
1 19.2 16.8 50.4
1 24 14.4 48
1 26.4 16.8 48
1 26.4 14.4 50.4
1 24 16.8 50.4
1 28.8 14.4 48
1 31.2 16.8 48
1 31.2 14.4 50.4
1 28.8 16.8 50.4
1 2.4 21.6 48
1 2.4 19.2 50.4
1 4.8 19.2 48
1 7.2 21.6 48
1 7.2 19.2 50.4
1 4.8 21.6 50.4
1 9.6 19.2 48
1 12 21.6 48
1 12 19.2 50.4
1 9.6 21.6 50.4
1 14.4 19.2 48
1 16.8 21.6 48
1 16.8 19.2 50.4
1 14.4 21.6 50.4
1 19.2 19.2 48
1 21.6 21.6 48
1 21.6 19.2 50.4
1 19.2 21.6 50.4
1 24 19.2 48
1 26.4 21.6 48
1 26.4 19.2 50.4
1 24 21.6 50.4
1 28.8 19.2 48
1 31.2 21.6 48
1 31.2 19.2 50.4
1 28.8 21.6 50.4
1 2.4 26.4 48
1 2.4 24 50.4
1 4.8 24 48
1 7.2 26.4 48
1 7.2 24 50.4
1 4.8 26.4 50.4
1 9.6 24 48
1 12 26.4 48
1 12 24 50.4
1 9.6 26.4 50.4
1 14.4 24 48
1 16.8 26.4 48
1 16.8 24 50.4
1 14.4 26.4 50.4
1 19.2 24 48
1 21.6 26.4 48
1 21.6 24 50.4
1 19.2 26.4 50.4
1 24 24 48
1 26.4 26.4 48
1 26.4 24 50.4
1 24 26.4 50.4
1 28.8 24 48
1 31.2 26.4 48
1 31.2 24 50.4
1 28.8 26.4 50.4
1 2.4 31.2 48
1 2.4 28.8 50.4
1 4.8 28.8 48
1 7.2 31.2 48
1 7.2 28.8 50.4
1 4.8 31.2 50.4
1 9.6 28.8 48
1 12 31.2 48
1 12 28.8 50.4
1 9.6 31.2 50.4
1 14.4 28.8 48
1 16.8 31.2 48
1 16.8 28.8 50.4
1 14.4 31.2 50.4
1 19.2 28.8 48
1 21.6 31.2 48
1 21.6 28.8 50.4
1 19.2 31.2 50.4
1 24 28.8 48
1 26.4 31.2 48
1 26.4 28.8 50.4
1 24 31.2 50.4
1 28.8 28.8 48
1 31.2 31.2 48
1 31.2 28.8 50.4
1 28.8 31.2 50.4
1 2.4 7.2 52.8
1 7.2 7.2 52.8
1 4.8 7.2 55.2
1 12 7.2 52.8
1 9.6 7.2 55.2
1 16.8 7.2 52.8
1 14.4 7.2 55.2
1 21.6 7.2 52.8
1 19.2 7.2 55.2
1 26.4 7.2 52.8
1 24 7.2 55.2
1 31.2 7.2 52.8
1 28.8 7.2 55.2
1 2.4 12 52.8
1 2.4 9.6 55.2
1 4.8 9.6 52.8
1 7.2 12 52.8
1 7.2 9.6 55.2
1 4.8 12 55.2
1 9.6 9.6 52.8
1 12 12 52.8
1 12 9.6 55.2
1 9.6 12 55.2
1 14.4 9.6 52.8
1 16.8 12 52.8
1 16.8 9.6 55.2
1 14.4 12 55.2
1 19.2 9.6 52.8
1 21.6 12 52.8
1 21.6 9.6 55.2
1 19.2 12 55.2
1 24 9.6 52.8
1 26.4 12 52.8
1 26.4 9.6 55.2
1 24 12 55.2
1 28.8 9.6 52.8
1 31.2 12 52.8
1 31.2 9.6 55.2
1 28.8 12 55.2
1 2.4 16.8 52.8
1 2.4 14.4 55.2
1 4.8 14.4 52.8
1 7.2 16.8 52.8
1 7.2 14.4 55.2
1 4.8 16.8 55.2
1 9.6 14.4 52.8
1 12 16.8 52.8
1 12 14.4 55.2
1 9.6 16.8 55.2
1 14.4 14.4 52.8
1 16.8 16.8 52.8
1 16.8 14.4 55.2
1 14.4 16.8 55.2
1 19.2 14.4 52.8
1 21.6 16.8 52.8
1 21.6 14.4 55.2
1 19.2 16.8 55.2
1 24 14.4 52.8
1 26.4 16.8 52.8
1 26.4 14.4 55.2
1 24 16.8 55.2
1 28.8 14.4 52.8
1 31.2 16.8 52.8
1 31.2 14.4 55.2
1 28.8 16.8 55.2
1 2.4 21.6 52.8
1 2.4 19.2 55.2
1 4.8 19.2 52.8
1 7.2 21.6 52.8
1 7.2 19.2 55.2
1 4.8 21.6 55.2
1 9.6 19.2 52.8
1 12 21.6 52.8
1 12 19.2 55.2
1 9.6 21.6 55.2
1 14.4 19.2 52.8
1 16.8 21.6 52.8
1 16.8 19.2 55.2
1 14.4 21.6 55.2
1 19.2 19.2 52.8
1 21.6 21.6 52.8
1 21.6 19.2 55.2
1 19.2 21.6 55.2
1 24 19.2 52.8
1 26.4 21.6 52.8
1 26.4 19.2 55.2
1 24 21.6 55.2
1 28.8 19.2 52.8
1 31.2 21.6 52.8
1 31.2 19.2 55.2
1 28.8 21.6 55.2
1 2.4 26.4 52.8
1 2.4 24 55.2
1 4.8 24 52.8
1 7.2 26.4 52.8
1 7.2 24 55.2
1 4.8 26.4 55.2
1 9.6 24 52.8
1 12 26.4 52.8
1 12 24 55.2
1 9.6 26.4 55.2
1 14.4 24 52.8
1 16.8 26.4 52.8
1 16.8 24 55.2
1 14.4 26.4 55.2
1 19.2 24 52.8
1 21.6 26.4 52.8
1 21.6 24 55.2
1 19.2 26.4 55.2
1 24 24 52.8
1 26.4 26.4 52.8
1 26.4 24 55.2
1 24 26.4 55.2
1 28.8 24 52.8
1 31.2 26.4 52.8
1 31.2 24 55.2
1 28.8 26.4 55.2
1 2.4 31.2 52.8
1 2.4 28.8 55.2
1 4.8 28.8 52.8
1 7.2 31.2 52.8
1 7.2 28.8 55.2
1 4.8 31.2 55.2
1 9.6 28.8 52.8
1 12 31.2 52.8
1 12 28.8 55.2
1 9.6 31.2 55.2
1 14.4 28.8 52.8
1 16.8 31.2 52.8
1 16.8 28.8 55.2
1 14.4 31.2 55.2
1 19.2 28.8 52.8
1 21.6 31.2 52.8
1 21.6 28.8 55.2
1 19.2 31.2 55.2
1 24 28.8 52.8
1 26.4 31.2 52.8
1 26.4 28.8 55.2
1 24 31.2 55.2
1 28.8 28.8 52.8
1 31.2 31.2 52.8
1 31.2 28.8 55.2
1 28.8 31.2 55.2
1 2.4 7.2 57.6
1 7.2 7.2 57.6
1 4.8 7.2 60
1 12 7.2 57.6
1 9.6 7.2 60
1 16.8 7.2 57.6
1 14.4 7.2 60
1 21.6 7.2 57.6
1 19.2 7.2 60
1 26.4 7.2 57.6
1 24 7.2 60
1 31.2 7.2 57.6
1 28.8 7.2 60
1 2.4 12 57.6
1 2.4 9.6 60
1 4.8 9.6 57.6
1 7.2 12 57.6
1 7.2 9.6 60
1 4.8 12 60
1 9.6 9.6 57.6
1 12 12 57.6
1 12 9.6 60
1 9.6 12 60
1 14.4 9.6 57.6
1 16.8 12 57.6
1 16.8 9.6 60
1 14.4 12 60
1 19.2 9.6 57.6
1 21.6 12 57.6
1 21.6 9.6 60
1 19.2 12 60
1 24 9.6 57.6
1 26.4 12 57.6
1 26.4 9.6 60
1 24 12 60
1 28.8 9.6 57.6
1 31.2 12 57.6
1 31.2 9.6 60
1 28.8 12 60
1 2.4 16.8 57.6
1 2.4 14.4 60
1 4.8 14.4 57.6
1 7.2 16.8 57.6
1 7.2 14.4 60
1 4.8 16.8 60
1 9.6 14.4 57.6
1 12 16.8 57.6
1 12 14.4 60
1 9.6 16.8 60
1 14.4 14.4 57.6
1 16.8 16.8 57.6
1 16.8 14.4 60
1 14.4 16.8 60
1 19.2 14.4 57.6
1 21.6 16.8 57.6
1 21.6 14.4 60
1 19.2 16.8 60
1 24 14.4 57.6
1 26.4 16.8 57.6
1 26.4 14.4 60
1 24 16.8 60
1 28.8 14.4 57.6
1 31.2 16.8 57.6
1 31.2 14.4 60
1 28.8 16.8 60
1 2.4 21.6 57.6
1 2.4 19.2 60
1 4.8 19.2 57.6
1 7.2 21.6 57.6
1 7.2 19.2 60
1 4.8 21.6 60
1 9.6 19.2 57.6
1 12 21.6 57.6
1 12 19.2 60
1 9.6 21.6 60
1 14.4 19.2 57.6
1 16.8 21.6 57.6
1 16.8 19.2 60
1 14.4 21.6 60
1 19.2 19.2 57.6
1 21.6 21.6 57.6
1 21.6 19.2 60
1 19.2 21.6 60
1 24 19.2 57.6
1 26.4 21.6 57.6
1 26.4 19.2 60
1 24 21.6 60
1 28.8 19.2 57.6
1 31.2 21.6 57.6
1 31.2 19.2 60
1 28.8 21.6 60
1 2.4 26.4 57.6
1 2.4 24 60
1 4.8 24 57.6
1 7.2 26.4 57.6
1 7.2 24 60
1 4.8 26.4 60
1 9.6 24 57.6
1 12 26.4 57.6
1 12 24 60
1 9.6 26.4 60
1 14.4 24 57.6
1 16.8 26.4 57.6
1 16.8 24 60
1 14.4 26.4 60
1 19.2 24 57.6
1 21.6 26.4 57.6
1 21.6 24 60
1 19.2 26.4 60
1 24 24 57.6
1 26.4 26.4 57.6
1 26.4 24 60
1 24 26.4 60
1 28.8 24 57.6
1 31.2 26.4 57.6
1 31.2 24 60
1 28.8 26.4 60
1 2.4 31.2 57.6
1 2.4 28.8 60
1 4.8 28.8 57.6
1 7.2 31.2 57.6
1 7.2 28.8 60
1 4.8 31.2 60
1 9.6 28.8 57.6
1 12 31.2 57.6
1 12 28.8 60
1 9.6 31.2 60
1 14.4 28.8 57.6
1 16.8 31.2 57.6
1 16.8 28.8 60
1 14.4 31.2 60
1 19.2 28.8 57.6
1 21.6 31.2 57.6
1 21.6 28.8 60
1 19.2 31.2 60
1 24 28.8 57.6
1 26.4 31.2 57.6
1 26.4 28.8 60
1 24 31.2 60
1 28.8 28.8 57.6
1 31.2 31.2 57.6
1 31.2 28.8 60
1 28.8 31.2 60
1 2.4 7.2 62.4
1 7.2 7.2 62.4
1 4.8 7.2 64.8
1 12 7.2 62.4
1 9.6 7.2 64.8
1 16.8 7.2 62.4
1 14.4 7.2 64.8
1 21.6 7.2 62.4
1 19.2 7.2 64.8
1 26.4 7.2 62.4
1 24 7.2 64.8
1 31.2 7.2 62.4
1 28.8 7.2 64.8
1 2.4 12 62.4
1 2.4 9.6 64.8
1 4.8 9.6 62.4
1 7.2 12 62.4
1 7.2 9.6 64.8
1 4.8 12 64.8
1 9.6 9.6 62.4
1 12 12 62.4
1 12 9.6 64.8
1 9.6 12 64.8
1 14.4 9.6 62.4
1 16.8 12 62.4
1 16.8 9.6 64.8
1 14.4 12 64.8
1 19.2 9.6 62.4
1 21.6 12 62.4
1 21.6 9.6 64.8
1 19.2 12 64.8
1 24 9.6 62.4
1 26.4 12 62.4
1 26.4 9.6 64.8
1 24 12 64.8
1 28.8 9.6 62.4
1 31.2 12 62.4
1 31.2 9.6 64.8
1 28.8 12 64.8
1 2.4 16.8 62.4
1 2.4 14.4 64.8
1 4.8 14.4 62.4
1 7.2 16.8 62.4
1 7.2 14.4 64.8
1 4.8 16.8 64.8
1 9.6 14.4 62.4
1 12 16.8 62.4
1 12 14.4 64.8
1 9.6 16.8 64.8
1 14.4 14.4 62.4
1 16.8 16.8 62.4
1 16.8 14.4 64.8
1 14.4 16.8 64.8
1 19.2 14.4 62.4
1 21.6 16.8 62.4
1 21.6 14.4 64.8
1 19.2 16.8 64.8
1 24 14.4 62.4
1 26.4 16.8 62.4
1 26.4 14.4 64.8
1 24 16.8 64.8
1 28.8 14.4 62.4
1 31.2 16.8 62.4
1 31.2 14.4 64.8
1 28.8 16.8 64.8
1 2.4 21.6 62.4
1 2.4 19.2 64.8
1 4.8 19.2 62.4
1 7.2 21.6 62.4
1 7.2 19.2 64.8
1 4.8 21.6 64.8
1 9.6 19.2 62.4
1 12 21.6 62.4
1 12 19.2 64.8
1 9.6 21.6 64.8
1 14.4 19.2 62.4
1 16.8 21.6 62.4
1 16.8 19.2 64.8
1 14.4 21.6 64.8
1 19.2 19.2 62.4
1 21.6 21.6 62.4
1 21.6 19.2 64.8
1 19.2 21.6 64.8
1 24 19.2 62.4
1 26.4 21.6 62.4
1 26.4 19.2 64.8
1 24 21.6 64.8
1 28.8 19.2 62.4
1 31.2 21.6 62.4
1 31.2 19.2 64.8
1 28.8 21.6 64.8
1 2.4 26.4 62.4
1 2.4 24 64.8
1 4.8 24 62.4
1 7.2 26.4 62.4
1 7.2 24 64.8
1 4.8 26.4 64.8
1 9.6 24 62.4
1 12 26.4 62.4
1 12 24 64.8
1 9.6 26.4 64.8
1 14.4 24 62.4
1 16.8 26.4 62.4
1 16.8 24 64.8
1 14.4 26.4 64.8
1 19.2 24 62.4
1 21.6 26.4 62.4
1 21.6 24 64.8
1 19.2 26.4 64.8
1 24 24 62.4
1 26.4 26.4 62.4
1 26.4 24 64.8
1 24 26.4 64.8
1 28.8 24 62.4
1 31.2 26.4 62.4
1 31.2 24 64.8
1 28.8 26.4 64.8
1 2.4 31.2 62.4
1 2.4 28.8 64.8
1 4.8 28.8 62.4
1 7.2 31.2 62.4
1 7.2 28.8 64.8
1 4.8 31.2 64.8
1 9.6 28.8 62.4
1 12 31.2 62.4
1 12 28.8 64.8
1 9.6 31.2 64.8
1 14.4 28.8 62.4
1 16.8 31.2 62.4
1 16.8 28.8 64.8
1 14.4 31.2 64.8
1 19.2 28.8 62.4
1 21.6 31.2 62.4
1 21.6 28.8 64.8
1 19.2 31.2 64.8
1 24 28.8 62.4
1 26.4 31.2 62.4
1 26.4 28.8 64.8
1 24 31.2 64.8
1 28.8 28.8 62.4
1 31.2 31.2 62.4
1 31.2 28.8 64.8
1 28.8 31.2 64.8
1 2.4 7.2 67.2
1 7.2 7.2 67.2
1 12 7.2 67.2
1 16.8 7.2 67.2
1 21.6 7.2 67.2
1 26.4 7.2 67.2
1 31.2 7.2 67.2
1 2.4 12 67.2
1 4.8 9.6 67.2
1 7.2 12 67.2
1 9.6 9.6 67.2
1 12 12 67.2
1 14.4 9.6 67.2
1 16.8 12 67.2
1 19.2 9.6 67.2
1 21.6 12 67.2
1 24 9.6 67.2
1 26.4 12 67.2
1 28.8 9.6 67.2
1 31.2 12 67.2
1 2.4 16.8 67.2
1 4.8 14.4 67.2
1 7.2 16.8 67.2
1 9.6 14.4 67.2
1 12 16.8 67.2
1 14.4 14.4 67.2
1 16.8 16.8 67.2
1 19.2 14.4 67.2
1 21.6 16.8 67.2
1 24 14.4 67.2
1 26.4 16.8 67.2
1 28.8 14.4 67.2
1 31.2 16.8 67.2
1 2.4 21.6 67.2
1 4.8 19.2 67.2
1 7.2 21.6 67.2
1 9.6 19.2 67.2
1 12 21.6 67.2
1 14.4 19.2 67.2
1 16.8 21.6 67.2
1 19.2 19.2 67.2
1 21.6 21.6 67.2
1 24 19.2 67.2
1 26.4 21.6 67.2
1 28.8 19.2 67.2
1 31.2 21.6 67.2
1 2.4 26.4 67.2
1 4.8 24 67.2
1 7.2 26.4 67.2
1 9.6 24 67.2
1 12 26.4 67.2
1 14.4 24 67.2
1 16.8 26.4 67.2
1 19.2 24 67.2
1 21.6 26.4 67.2
1 24 24 67.2
1 26.4 26.4 67.2
1 28.8 24 67.2
1 31.2 26.4 67.2
1 2.4 31.2 67.2
1 4.8 28.8 67.2
1 7.2 31.2 67.2
1 9.6 28.8 67.2
1 12 31.2 67.2
1 14.4 28.8 67.2
1 16.8 31.2 67.2
1 19.2 28.8 67.2
1 21.6 31.2 67.2
1 24 28.8 67.2
1 26.4 31.2 67.2
1 28.8 28.8 67.2
1 31.2 31.2 67.2
1931
Atoms. Timestep: 50000
1 0.177623 6.2854 59.1456
1 12.5745 5.73877 11.242
1 10.1027 20.8778 1.5894
1 23.0432 24.6462 51.8476
1 14.5022 22.5088 67.2698
1 34.6633 9.01333 14.1634
1 20.9116 36.4267 71.9885
1 6.15822 9.97764 61.3567
1 7.00671 22.1818 11.3111
1 18.329 30.6348 68.6602
1 28.5389 32.4585 18.8343