1931
Atoms. Timestep: 500000
1 17.1257 10.5714 56.1175
1 31.2726 30.1822 5.27106
1 25.7873 7.53892 71.0525
1 30.6288 3.25034 17.649
1 25.4897 20.5313 59.9767
1 16.434 15.2658 59.7416
1 6.77856 6.08484 62.2418
1 36.056 17.4027 14.2378
1 23.8796 33.5124 58.8887
1 0.105993 13.1087 0.576592
1 7.99859 31.2968 1.86804
1 33.2878 11.0689 30.2225
1 11.7805 16.8534 13.2966
1 3.95744 16.3064 13.602
1 0.890145 12.2028 44.9183
1 6.05704 34.9112 1.64754
1 4.84308 26.4359 31.178
1 35.9679 18.1884 62.5892
1 0.0867054 9.09777 65.1754
1 16.5076 35.7145 25.8191
1 24.38 19.9441 24.0209
1 26.9559 29.5318 57.747
1 6.79933 22.105 67.5574
1 15.7347 30.9747 8.21423
1 26.1754 9.76646 16.2041
1 2.79019 7.00488 1.03242
1 17.4162 36.2913 37.065
1 29.2292 21.2546 14.0424
1 26.0413 26.2854 43.1394
1 23.7466 29.6297 8.63822
1 22.6327 13.3659 22.1225
1 22.0156 21.0685 36.6848
1 17.1007 10.1455 30.1691
1 24.6765 14.2354 17.999
1 33.0782 15.6775 23.9954
1 4.35468 32.2284 1.07176
1 11.5855 18.6527 37.3745
1 3.15693 12.582 55.7094
1 0.33301 29.1823 43.2989
1 31.7549 30.0465 52.2895
1 2.87591 14.8726 67.1834
1 33.119 8.02562 15.6798
1 33.9475 13.8906 44.6963
1 3.98332 7.77437 30.5526
1 16.418 4.57494 20.9724
1 22.2219 14.0433 11.8936
1 33.8896 10.1378 43.8563
1 22.1032 32.7579 23.3636
1 7.91888 4.65598 48.1043
1 30.7094 24.7194 30.7154
1 26.7107 23.3663 37.7048
1 29.2918 28.3076 35.7431
1 21.0127 11.8093 54.3578
1 25.7088 36.4747 33.0501
1 23.9582 2.25059 8.07586
1 10.3758 1.17215 27.2666
1 1.01552 9.13647 69.2236
1 9.67833 13.3873 8.22526
1 7.2232 16.5028 27.1097
1 10.6795 32.2749 57.9779
1 6.89746 5.09467 16.9912
1 9.79282 35.8003 11.8392
1 17.0742 31.0425 64.0449
1 23.0349 24.1849 46.66
1 11.2585 11.6273 49.8168
1 21.7034 34.11 42.6543
1 30.5113 13.3315 59.8663
1 3.71991 28.3098 28.1442
1 28.8592 10.2494 3.07882
1 2.0182 23.2581 17.1733
1 36.1289 35.8648 16.7499
1 19.5221 10.0232 33.7674
1 11.7951 4.57099 48.7006
1 25.643 13.358 41.423
1 20.3468 24.455 13.512
1 12.7911 23.1257 46.6586
1 26.8682 8.95672 59.11
1 14.3036 16.4314 10.7828
1 0.512069 18.3606 45.3801
1 21.4218 3.73426 4.19764
1 2.88461 27.2725 14.2669
1 26.1204 14.6768 33.6611
1 34.4812 24.6519 24.034
1 35.3256 33.1758 23.8961
1 10.0561 13.1575 34.1576
1 18.5111 36.241 33.5444
1 8.31396 6.3322 32.788
1 15.9725 0.227009 15.8347
1 1.54056 30.0651 59.6236
1 14.2562 4.34211 24.1956
1 32.4855 5.75587 66.7349
1 10.9176 10.3761 28.3579
1 3.86353 24.4769 7.58246
1 5.72287 32.852 12.4044
1 18.9365 1.18026 14.2426
1 34.1053 8.14417 39.008
1 8.00539 4.84183 37.6809
1 23.8161 4.72334 28.6801
1 16.1364 14.3513 12.5136
1 35.3336 25.6824 53.9705
1 7.97379 18.3016 19.5355
1 12.6375 34.9685 46.273
1 16.6061 1.64013 71.0653
1 23.675 12.1491 27.9219
1 5.30131 20.1075 12.9048
1 26.0801 36.0761 55.1368
1 7.9877 21.7122 54.1005
1 25.5328 11.1234 23.8882
1 22.2677 12.5614 61.1714
1 33.3397 31.1581 2.81669
1 4.43285 19.0255 27.5931
1 10.5385 10.6731 2.85199
1 17.9957 32.5779 37.9245
1 25.9061 16.7475 39.4276
1 19.057 25.9714 52.2812
1 15.1305 24.2039 25.8611
1 30.525 30.2779 38.9137
1 23.1466 7.04069 58.3794
1 34.434 14.6474 15.1101
1 17.388 0.0805199 47.2545
1 13.7124 8.0322 27.7357
1 13.4812 31.3863 22.971
1 30.4969 33.7806 2.78385
1 12.4537 26.9669 11.2564
1 24.5363 0.757983 45.8119
1 22.9048 20.9769 12.5112
1 14.0707 15.1712 20.8926
1 3.6269 7.10043 17.234
1 33.8916 14.5304 70.9616
1 2.24131 36.0483 48.3189
1 20.0274 24.5381 9.18309
1 30.707 12.6487 25.7412
1 35.9869 5.21753 40.3219
1 36.135 3.69101 4.7923
1 18.2108 29.8973 40.9998
1 35.4662 19.6765 1.84421
1 31.218 4.57928 53.3378
1 2.46955 23.2562 47.9968
1 22.6051 15.9852 52.4183
1 31.4111 36.435 50.0043
1 8.53435 23.7494 50.8484
1 9.79194 25.677 21.8053
1 6.48385 10.8173 28.7726
1 14.6617 4.23505 42.9252
1 25.8009 33.1305 70.2342
1 20.7181 20.5118 8.68283
1 14.1975 18.4636 18.8571
1 18.4828 33.9351 61.963
1 15.3069 17.1784 3.50606
1 10.8895 33.4711 72.5014
1 24.0997 12.4746 52.5834
1 10.5466 4.42688 60.9338
1 27.388 32.8268 58.1543
1 36.3768 22.6956 38.9284
1 16.7208 14.9057 24.1277
1 2.36907 34.5957 23.7271
1 12.2093 4.6812 14.7891
1 9.65025 27.7586 34.3841
1 5.5705 26.8222 16.6001
1 21.9645 7.53107 17.6282
1 0.826307 5.1019 24.4708
1 31.5251 11.1835 47.1843
1 1.86285 6.5447 36.8364
1 4.93104 3.65311 72.1514
1 18.7026 18.0773 42.2693
1 30.8445 22.3794 60.6444
1 7.90209 18.4416 55.6967
1 33.486 17.8825 65.8233
1 32.9577 15.3705 58.4837
1 21.5536 21.1867 15.6996
1 10.8678 15.5996 67.0506
1 18.7564 35.9036 50.6509
1 23.1676 18.2169 64.4788
1 9.21853 15.2652 17.3537
1 14.9927 17.2838 7.65063
1 24.2994 14.6834 63.5291
1 9.85162 14.7078 48.7224
1 26.0494 15.5131 29.9989
1 31.8325 7.01915 47.1833
1 33.8205 24.6179 46.746
1 27.8265 25.5147 34.1328
1 15.4905 29.5605 13.7596
1 1.39026 31.1524 63.1719
1 3.25949 26.4121 10.7895
1 4.18246 13.3299 45.7378
1 14.3513 9.11886 65.2705
1 31.5219 33.6974 36.2134
1 8.40465 13.6056 3.45287
1 4.41656 8.64032 67.4031
1 12.1343 32.0826 38.6475
1 9.31727 11.0036 16.334
1 8.54183 27.4709 24.5865
1 29.3319 21.653 9.6384
1 18.2723 1.48483 18.2299
1 9.11994 30.2087 44.4924
1 9.38667 29.2508 65.4958
1 36.498 33.4876 48.1005
1 6.38691 6.43897 57.901
1 24.8573 20.916 27.6088
1 9.22452 22.4733 29.9962
1 31.1041 13.8086 15.2341
1 32.5416 35.6579 17.6728
1 1.78354 34.8286 63.0886
1 29.4221 15.2474 8.68282
1 7.90944 15.7905 10.5971
1 5.93787 3.68111 68.8499
1 8.87047 25.8043 66.9237
1 12.2926 10.4626 10.6883
1 15.452 27.5234 63.6157
1 6.42801 4.0295 41.9866
1 16.7441 8.34094 61.5987
1 20.8324 4.44439 14.4395
1 33.5903 1.97476 46.269
1 4.3881 25.1454 35.2819
1 33.6999 35.173 42.8599
1 2.19188 36.1291 66.7859
1 11.7225 0.034107 3.39169
1 9.06061 2.91215 30.256
1 20.835 16.2561 62.1683
1 1.56255 12.9952 24.9932
1 19.7933 4.11403 30.5656
1 25.0759 35.2932 22.4796
1 14.3327 22.6528 69.1095
1 4.59944 4.6228 19.5075
1 4.16368 25.5263 26.1546
1 18.3893 6.13354 6.31828
1 33.8586 20.435 40.8542
1 23.3936 32.0707 49.9658
1 21.6772 29.6031 47.1415
1 29.5737 36.4113 16.5937
1 35.218 14.9511 26.882
1 28.3783 18.6437 10.9853
1 10.9816 24.3313 5.33309
1 23.0181 23.0256 59.0186
1 22.7605 10.0866 11.0327
1 33.1618 15.1633 18.6908
1 12.4089 9.82177 56.2445
1 27.8258 20.0924 30.5822
1 7.69538 7.31538 67.3709
1 31.5643 0.850566 69.0776
1 10.5361 32.5216 53.2063
1 18.109 33.5785 41.3644
1 21.0921 2.71895 47.9468
1 27.4386 17.6721 26.7436
1 24.4051 0.494243 37.7948
1 9.53838 0.879867 48.3978
1 7.89636 7.35521 29.2308
1 20.3644 21.9008 19.1029
1 20.3095 30.7885 43.6755
1 34.4785 8.66615 8.52331
1 6.74411 28.8799 35.967
1 27.6093 6.49904 33.745
1 12.1362 11.1639 6.86907
1 9.64559 12.8281 0.204423
1 11.4161 26.3772 40.2668
1 24.7846 9.01075 61.9695
1 1.90927 16.0961 7.75313
1 7.24131 35.0113 9.25733
1 5.59696 17.7121 58.2744
1 12.5392 15.5472 25.9305
1 18.5182 27.476 0.615005
1 12.8211 3.38049 39.0402
1 15.9013 17.0476 38.5154
1 35.6203 6.08636 67.9961
1 24.4459 6.07031 32.2944
1 16.9106 32.5265 23.6567
1 19.218 22.512 38.201
1 1.18693 32.4669 44.1306
1 4.21658 9.02584 45.0267
1 5.62809 31.7401 61.3092
1 32.0681 35.4982 10.4986
1 32.3775 6.38106 18.8792
1 28.6704 15.2917 12.6099
1 30.471 16.2574 32.2526
1 32.1222 33.0789 66.6245
1 14.6114 13.2178 39.1204
1 1.37976 9.29501 10.522
1 34.0627 25.6985 2.66058
1 33.0843 23.7205 56.2014
1 15.2203 0.139169 1.69065
1 14.5935 33.4786 2.68824
1 4.4451 14.6041 49.1973
1 20.6126 9.87427 8.17804
1 27.2892 13.9548 67.4433
1 15.7467 26.8686 42.4449
1 16.8433 14.1132 67.2623
1 5.86825 23.5999 18.4518
1 6.78799 10.9178 1.32795
1 21.1492 4.66553 8.25779
1 22.3467 9.94377 25.1798
1 26.0484 18.5978 0.783036
1 31.2269 25.46 52.8342
1 22.109 2.19377 12.0415
1 29.1292 2.21384 59.9407
1 23.1234 9.07333 50.6726
1 20.3586 5.71876 21.7267
1 9.20811 23.421 8.91575
1 21.6335 9.41965 60.1615
1 26.175 18.091 65.9342
1 4.67845 17.588 72.9876
1 32.1281 22.4806 43.1062
1 22.9714 4.03882 17.237
1 28.3714 25.6735 56.4967
1 6.57109 27.3547 52.3621
1 29.1088 20.4728 50.2536
1 10.8991 36.1244 65.0651
1 34.4882 30.7347 71.3073
1 2.97694 4.31368 57.214
1 2.94845 26.8486 41.8858
1 12.7733 20.2472 25.8031
1 4.59046 14.1053 9.97683
1 25.8045 6.06354 16.6584
1 30.5834 36.2723 65.494
1 7.11659 34.1754 58.1263
1 19.7406 33.0171 20.1277
1 31.0515 21.0764 46.575
1 21.7658 15.2483 3.86597
1 21.0663 19.4235 69.189
1 15.4051 22.3559 29.449
1 14.4322 34.4367 37.7097
1 25.5681 25.8673 70.8527
1 27.9413 34.8213 72.6382
1 17.875 33.158 45.7886
1 19.1002 25.6384 5.00748
1 25.8126 21.3375 10.2515
1 7.88629 19.5433 50.5474
1 9.33551 32.4641 69.349
1 30.3521 24.1064 36.7525
1 3.1565 33.6303 54.5022
1 2.65174 22.2234 5.53637
1 5.02813 31.3763 5.41026
1 18.9694 11.8392 10.8945
1 11.1144 28.8601 37.6496
1 21.5705 23.1129 5.32691
1 24.0945 25.6993 2.03873
1 33.7771 21.7816 62.7645
1 19.6439 29.098 36.7128
1 2.76969 24.2085 1.50995
1 27.9683 14.2807 16.7883
1 11.7474 7.1351 58.3738
1 33.3495 3.15756 41.7877
1 14.7263 13.8195 33.0397
1 3.22346 2.56678 32.7762
1 4.02654 21.8467 25.6447
1 9.73267 31.3952 35.8446
1 11.2141 23.6239 18.7576
1 21.6155 18.9269 55.1586
1 31.252 16.2476 26.9681
1 29.9406 13.2902 72.7174
1 4.75892 32.107 35.8474
1 28.1605 35.6887 10.4197
1 21.0713 17.6031 11.0184
1 11.2628 12.5373 45.9799
1 19.9346 13.0717 64.9942
1 10.9926 34.124 61.2889
1 5.36758 24.5263 55.7293
1 18.5673 24.2063 57.7628
1 25.1386 18.6784 4.62597
1 9.05032 35.0793 36.9001
1 17.2302 3.169 35.1865
1 11.0536 13.6044 22.3425
1 7.51543 11.982 61.386
1 17.6215 6.37086 13.0973
1 8.50129 3.66479 7.79632
1 1.96154 8.19623 23.0174
1 21.7259 7.35204 36.5107
1 22.9605 18.4353 48.4639
1 4.98415 12.4682 63.6442
1 27.2894 7.08135 23.7055
1 22.9947 20.8567 2.68922
1 13.53 8.42942 41.5339
1 14.4407 23.3616 14.8728
1 32.2316 35.1927 25.1608
1 2.41739 11.3568 66.3554
1 29.0146 14.2278 63.4616
1 19.8034 0.0451657 64.7797
1 5.64199 6.68428 5.97264
1 26.2181 18.7125 14.4524
1 18.689 2.09264 61.4444
1 27.8422 7.29405 1.00618
1 35.834 28.4189 1.12247
1 19.923 12.0601 26.8717
1 16.1945 24.4682 44.9268
1 17.8235 3.115 49.5613
1 35.9161 9.01186 17.7116
1 5.4249 30.2949 32.7677
1 21.7124 29.9919 32.9361
1 22.6909 1.49103 24.0611
1 21.2098 3.28905 54.7344
1 11.4381 16.8707 2.38776
1 6.53063 0.96498 32.1785
1 13.0452 10.8781 31.2117
1 32.9676 34.2308 47.2002
1 0.820595 12.7555 35.5468
1 11.3133 26.2249 57.7605
1 13.3854 3.08889 2.18978
1 33.6745 11.2068 6.01885
1 32.3506 9.44084 2.28785
1 22.4283 26.6106 52.344
1 0.352654 25.6575 44.6704
1 0.112497 6.52952 54.7751
1 13.9088 28.8142 17.325
1 34.5143 30.4399 48.918
1 25.7262 2.86295 67.6944
1 28.0282 27.1372 0.84632
1 21.9726 2.45073 44.1206
1 19.1134 21.9171 44.3248
1 18.0586 17.3498 5.99975
1 6.69673 31.9564 42.0698
1 31.7514 4.02865 5.11739
1 34.8268 10.9332 14.3044
1 31.8416 21.3189 1.70757
1 33.895 20.9564 23.0983
1 0.864979 7.29061 27.5693
1 29.1736 31.8754 34.6051
1 0.380021 14.0997 60.3593
1 30.355 20.0334 26.7696
1 17.7586 7.27941 71.9913
1 35.719 18.1614 5.70584
1 17.0534 31.0579 56.4088
1 26.2268 24.1955 67.5327
1 0.681061 32.1888 0.455292
1 34.0884 7.73697 28.0232
1 15.6131 21.2746 0.520393
1 34.367 3.59519 32.696
1 24.8159 9.95115 67.922
1 31.9186 0.225214 31.8318
1 5.52856 28.3652 12.664
1 2.97073 1.49616 29.3932
1 25.4169 31.5505 33.618
1 33.3712 26.1895 43.4468
1 12.7332 12.822 52.9455
1 30.3486 11.8473 8.82702
1 2.19515 6.01808 70.637
1 1.15505 12.7977 70.2605
1 17.1403 6.75266 30.2928
1 5.89546 13.7342 6.73004
1 19.1755 5.19075 17.9231
1 14.3576 22.8661 53.0835
1 1.36302 24.3296 23.5024
1 31.6363 30.9569 11.4021
1 32.3329 32.2564 63.002
1 14.0158 23.5819 3.01218
1 14.4642 33.0597 16.6091
1 19.5215 14.896 69.4881
1 17.8376 23.2816 54.0236
1 2.01182 9.23165 47.9413
1 8.0711 34.4282 44.7846
1 16.7645 26.6743 38.7263
1 19.8286 32.8407 26.0231
1 5.85219 28.5239 43.624
1 2.32089 16.5089 64.0466
1 7.84431 29.708 58.7197
1 11.8586 22.0971 22.5308
1 28.3835 0.0962621 30.8409
1 13.7691 14.6869 50.1354
1 5.63691 21.8193 48.2261
1 16.4085 3.48673 31.5624
1 5.835 25.7629 22.7093
1 17.7642 32.374 31.0183
1 1.83697 26.8982 32.907
1 2.87864 23.1194 58.9573
1 6.16385 9.67613 32.8475
1 14.3643 29.957 4.06155
1 10.0823 7.90891 48.9749
1 16.7303 25.3939 67.7024
1 23.7756 23.2896 30.0128
1 20.0374 30.0755 29.9737
1 15.3859 2.58629 59.712
1 17.7915 33.0359 13.9892
1 33.2002 9.62453 49.9304
1 29.3994 9.16689 10.593
1 4.49519 24.869 50.2809
1 35.0699 26.3978 10.9117
1 22.8757 24.6008 33.3568
1 8.30472 20.5416 37.6424
1 6.55992 1.74602 11.5366
1 6.91465 34.2178 5.17275
1 11.2457 22.3589 38.452
1 24.7173 28.5876 48.6781
1 20.7198 29.4427 61.7051
1 3.78583 5.7384 60.3512
1 30.2475 6.84302 21.7461
1 1.13189 20.3831 28.6542
1 11.9995 31.4509 28.4992
1 5.08029 5.19403 22.9065
1 32.7382 17.1848 37.831
1 11.5834 34.3288 49.4007
1 33.7535 17.7087 42.733
1 15.0989 16.7806 30.7195
1 36.2739 35.2685 21.0063
1 3.92037 15.3125 36.8733
1 16.9179 16.5886 46.2385
1 14.4697 7.85176 38.1821
1 17.6096 29.0467 66.9604
1 35.3356 17.092 32.5791
1 2.6678 34.4348 26.9578
1 19.3567 34.758 16.8676
1 29.4594 17.7681 15.4827
1 34.0509 21.4581 8.43554
1 14.3642 21.3069 49.518
1 12.3374 24.8826 50.2057
1 24.3096 7.20821 39.6542
1 31.6618 33.5349 59.416
1 15.327 2.50002 8.47843
1 6.56065 30.2175 71.4309
1 9.56533 17.9093 63.0241
1 10.6173 27.2443 47.4168
1 10.5855 5.49362 27.0788
1 16.7132 4.4037 62.7854
1 8.31534 19.5972 9.20888
1 4.76198 21.6684 9.33946
1 12.0533 1.46389 23.3516
1 29.026 2.57808 34.1022
1 26.7196 26.9794 38.7981
1 16.4952 29.7846 44.2454
1 15.625 26.6595 3.30332
1 3.54454 34.0587 59.4123
1 11.5743 28.4613 60.5455
1 29.1309 20.0464 71.7675
1 5.6672 32.9366 17.8174
1 9.34437 6.75078 22.0843
1 34.185 12.1518 61.0409
1 5.68063 32.8343 68.1056
1 6.71548 9.2635 55.5698
1 23.3598 13.3379 8.31824
1 30.6481 3.28746 20.9957
1 17.1032 3.50988 28.1697
1 13.5448 27.3109 27.6795
1 36.4718 15.3263 47.043
1 34.6109 22.2062 53.8388
1 12.7975 21.1266 31.4718
1 24.7182 26.6853 57.4447
1 19.166 6.30862 2.21948
1 19.7451 4.33889 64.3969
1 10.1741 24.2228 60.9663
1 15.2049 16.9616 14.454
1 19.3074 10.6545 0.765021
1 2.51536 21.6601 54.7664
1 4.12746 9.3658 52.8381
1 19.7338 21.1014 0.610831
1 22.1533 9.37836 21.8956
1 32.8526 31.6477 25.8347
1 26.9282 12.8996 6.64221
1 29.0345 33.7817 39.323
1 35.4766 27.4 58.2328
1 15.6405 6.45438 2.58017
1 26.1344 11.2654 10.3405
1 14.5973 7.18074 49.0227
1 20.1668 32.8518 10.0268
1 13.3854 6.9798 21.3532
1 27.054 17.6849 51.3154
1 32.9215 31.9213 16.1636
1 32.2813 25.0624 21.0147
1 1.77373 33.639 10.8073
1 29.9184 11.1549 65.5556
1 30.3475 9.0793 32.2617
1 8.75837 9.7513 46.0752
1 21.429 36.2268 60.4328
1 19.4803 34.2185 2.60659
1 1.60025 2.47244 18.3094
1 17.8385 23.7215 70.7732
1 12.2499 14.7783 29.5397
1 0.427007 23.6409 8.79976
1 35.5689 9.34307 25.095
1 27.5416 0.00556758 3.66566
1 23.9461 6.62324 9.97547
1 19.2678 18.9406 38.5866
1 15.1386 0.42771 40.0258
1 3.21199 10.0726 27.6049
1 17.488 10.353 65.9204
1 5.01528 3.21642 63.5059
1 21.6997 36.176 8.85015
1 24.1588 5.43421 6.27924
1 28.0974 7.16381 61.7681
1 24.995 2.01378 57.9574
1 27.7487 30.05 7.27217
1 19.2175 23.8148 34.6928
1 35.5262 36.412 71.2565
1 34.2341 14.477 34.7254
1 20.5409 4.84686 25.8888
1 19.0655 32.3801 34.4074
1 31.8215 22.8798 69.5157
1 5.1791 12.1947 14.3572
1 19.8228 9.18506 14.1458
1 0.868011 34.6941 36.5582
1 20.6548 28.5821 9.76312
1 23.6617 33.2168 19.3876
1 5.26477 5.59924 50.7283
1 25.3844 21.6646 21.1069
1 30.4519 1.32448 13.0458
1 25.3379 29.1817 64.8393
1 32.3462 1.47331 54.8588
1 31.8565 21.2887 16.3546
1 32.2313 21.1177 37.2014
1 27.6285 7.88531 38.1302
1 6.49822 11.635 49.2726
1 6.31301 24.678 42.9371
1 0.216934 36.3624 33.162
1 7.53338 28.0981 61.8848
1 32.6937 27.5609 71.6717
1 9.66285 26.76 27.9812
1 17.2178 17.4588 20.5036
1 18.0898 14.1824 31.3425
1 23.7255 9.46331 33.3414
1 35.3471 8.27077 46.3517
1 26.7036 2.42636 10.2887
1 8.92532 1.03353 42.3817
1 6.41799 18.1113 69.9442
1 0.664453 13.3266 17.7778
1 31.3288 18.7395 7.71015
1 26.8543 21.7198 63.1757
1 26.2879 8.48318 65.0614
1 35.7441 24.3163 33.0926
1 6.06508 9.55508 20.9543
1 17.0224 20.5055 51.8883
1 28.7819 21.1239 43.7073
1 4.53496 28.7195 38.8506
1 23.2665 12.5168 5.00012
1 5.58084 5.10333 2.47352
1 2.99689 7.30862 63.7367
1 0.493372 2.4402 47.1897
1 28.8821 16.3788 4.92531
1 1.33804 16.6622 11.3627
1 24.745 34.3831 5.51167
1 2.45019 2.99634 1.75932
1 6.58198 35.1813 54.6339
1 11.655 30.8618 7.92456
1 17.8367 24.2277 1.66921
1 29.0964 35.4569 34.3501
1 28.0628 11.9126 38.6507
1 30.2737 12.6754 35.3222
1 27.2359 27.0735 62.3862
1 25.4961 0.846119 0.704746
1 31.6918 34.1885 53.5825
1 13.0365 25.7816 67.4604
1 9.34676 4.0829 51.078
1 19.221 31.8715 49.0714
1 15.1054 21.509 19.6353
1 6.37823 12.1057 42.6619
1 6.66161 29.5463 67.6889
1 18.1056 32.9731 69.2736
1 0.851348 35.9763 57.3378
1 28.8358 10.898 62.079
1 15.3793 29.89 37.8004
1 5.46338 2.89909 35.9887
1 23.2025 11.9938 14.8592
1 10.6602 25.2011 53.7427
1 20.872 6.71581 48.1868
1 9.68598 6.27129 55.9455
1 31.9388 18.7268 4.02206
1 23.062 21.9573 63.2042
1 10.5543 35.8736 68.6648
1 17.282 26.2123 27.7658
1 26.0994 12.5482 60.6927
1 24.8353 30.593 4.57953
1 4.82306 6.27597 34.669
1 0.244989 2.42665 68.3186
1 25.2169 16.7732 21.4183
1 20.1115 26.9242 40.3635
1 28.4356 22.6169 0.747669
1 23.9118 27.8205 61.5115
1 18.2886 5.8586 37.3566
1 16.6316 25.6618 13.6879
1 12.6517 27.4632 44.0455
1 3.38213 28.2732 21.9426
1 12.3415 8.33437 17.8757
1 1.35696 31.1285 22.8133
1 31.8596 18.1859 21.4574
1 12.3439 11.4462 25.3887
1 4.7765 10.2595 7.55225
1 14.4763 24.215 62.8821
1 21.7487 7.80728 4.00812
1 8.21739 18.776 30.9356
1 30.1578 0.518848 46.3725
1 15.4087 28.597 24.945
1 36.1476 7.12835 14.0492
1 32.0382 27.0582 26.0767
1 2.38559 34.8858 18.2479
1 24.5265 9.92393 7.69544
1 9.60916 31.9262 11.2313
1 32.3257 10.9247 40.438
1 9.09125 2.22578 14.918
1 22.2885 17.8975 14.8762
1 3.44916 8.98575 3.83085
1 4.52814 0.61598 26.2287
1 28.3013 25.3332 10.9083
1 16.9754 6.52655 26.2139
1 32.7938 17.5942 16.2125
1 36.1618 11.8196 20.9836
1 31.0273 10.6701 56.8131
1 29.8316 3.36281 67.1712
1 29.4685 11.6829 29.1888
1 30.2402 12.4847 69.4483
1 34.1321 8.32501 57.7576
1 27.6638 18.7282 23.39
1 5.79167 32.17 29.3614
1 24.6614 13.6427 37.5986
1 12.2962 19.6281 72.0605
1 34.6113 21.3195 47.5443
1 16.3518 21.4857 61.0717
1 4.79323 31.6258 22.1192
1 12.3271 26.2077 15.189
1 12.0321 12.3507 13.8521
1 23.3186 10.8524 40.0312
1 19.6349 15.3248 20.4226
1 24.611 22.4822 0.0936563
1 22.627 31.0542 27.1856
1 12.7117 11.8064 36.1371
1 13.352 23.8369 42.7656
1 31.8669 35.695 21.4979
1 17.3769 30.7331 18.3312
1 29.2056 25.2864 24.0313
1 21.4049 30.865 6.12638
1 6.49311 15.4949 61.0434
1 3.06251 18.9303 15.7045
1 25.3813 29.5704 44.638
1 23.6378 18.9801 7.95771
1 9.67006 19.4215 41.0093
1 18.1752 29.4796 27.0474
1 27.2357 26.2583 4.12864
1 17.4375 22.4447 16.9117
1 4.81507 9.92633 35.8531
1 20.3382 11.2007 50.8136
1 12.9537 15.8697 58.409
1 14.1085 27.4543 7.08007
1 24.9942 1.86312 20.7178
1 26.2873 15.0267 9.96781
1 13.3336 1.16709 31.2364
1 34.4833 29.2758 63.6388
1 19.9956 1.96431 40.4662
1 33.0405 7.3336 4.87266
1 4.29018 3.63446 47.7462
1 14.0455 34.1889 41.7161
1 8.3956 17.3528 0.025781
1 29.0628 4.53211 14.3541
1 15.5948 36.2181 44.0574
1 2.7065 4.13552 27.1134
1 6.33218 15.2063 66.8615
1 24.0698 24.1003 26.0865
1 8.60753 24.7519 12.3017
1 17.3096 21.1968 3.57632
1 30.4307 13.3037 4.43469
1 5.03786 17.9342 40.1316
1 2.84575 3.98591 53.6057
1 29.9166 26.5318 59.8093
1 25.4245 15.8056 6.22615
1 17.1466 9.46164 8.03909
1 7.16069 1.98033 1.40694
1 23.1841 27.7727 42.0186
1 0.572819 25.928 36.7838
1 6.89334 25.5593 72.9106
1 26.5956 30.0724 14.6649
1 16.6701 17.9198 68.0906
1 20.6935 11.5105 36.6258
1 27.8155 19.0523 7.13303
1 28.5739 14.8269 23.5038
1 11.3793 14.774 37.0368
1 32.8664 18.452 30.0233
1 31.3504 31.1015 72.4881
1 28.7437 12.9245 50.8493
1 19.8308 1.48726 26.9384
1 8.71739 28.497 10.5742
1 17.5135 6.01034 47.3697
1 2.38774 18.8158 42.0598
1 15.1645 1.20937 21.9215
1 25.5536 22.1176 33.0805
1 23.2038 27.7662 14.8556
1 23.5201 25.7772 19.8482
1 6.32275 15.0478 55.7122
1 28.0892 27.9078 30.997
1 13.276 6.31076 72.1011
1 29.0578 29.4982 17.7918
1 19.4842 1.63099 6.90424
1 3.27395 14.8947 41.1565
1 18.0142 10.3503 4.64415
1 28.2087 14.9699 36.6316
1 29.6196 16.8759 60.0444
1 5.33205 23.6823 3.95199
1 16.5705 26.166 59.7407
1 9.21103 31.1616 61.9797
1 35.6601 5.27881 16.9285
1 24.2511 0.925425 49.5622
1 27.5567 23.8602 30.1947
1 5.27383 18.1809 53.1251
1 5.69349 35.1389 40.4377
1 26.7021 10.7741 0.30843
1 30.8037 27.0558 39.8821
1 16.3664 10.517 41.152
1 31.3242 26.7096 48.798
1 3.14178 33.1515 38.6484
1 32.7771 18.6578 33.9008
1 33.1443 15.0095 8.24672
1 33.4675 1.9688 66.1094
1 21.9635 6.13099 51.8868
1 18.7505 12.7147 14.7307
1 5.32279 1.18138 7.87998
1 35.8256 33.0016 54.1263
1 35.5369 8.38261 61.7127
1 14.9134 24.9648 56.1917
1 14.495 13.5399 8.84615
1 28.9022 28.7448 24.7744
1 16.7619 23.5 50.1348
1 7.1339 30.065 19.5464
1 21.4793 12.0246 18.8876
1 12.4081 6.75069 52.4784
1 2.28952 15.9453 57.9168
1 19.4737 5.9017 68.5145
1 11.8764 18.1347 55.6999
1 32.8052 10.8506 34.272
1 31.3372 10.9086 13.0628
1 18.2163 3.20622 45.0963
1 18.3656 3.38711 11.5301
1 0.0997222 15.4911 42.9439
1 27.1288 30.2761 27.9294
1 23.6361 0.449607 71.0188
1 5.65798 7.55402 41.9553
1 24.6724 21.0952 16.9262
1 33.0648 13.3474 2.27627
1 25.5514 32.9387 1.63392
1 7.7585 12.2501 53.5676
1 32.1337 26.1322 68.2749
1 34.9031 29.5905 12.767
1 33.3621 6.36448 24.9232
1 18.8421 17.3014 28.5674
1 4.02774 26.2708 62.3358
1 17.9146 28.3498 6.60169
1 33.0629 34.6768 14.0975
1 28.7017 20.8894 57.7165
1 8.94067 28.0851 14.7983
1 35.7152 11.8557 48.1804
1 28.8078 26.5995 27.682
1 4.43652 9.52438 61.078
1 12.0871 8.1315 24.3561
1 27.5932 24.9745 7.35875
1 14.337 34.7361 13.1626
1 29.5332 24.6093 63.3475
1 32.5907 5.22134 56.5825
1 30.1815 17.4657 35.3821
1 26.5074 16.3041 61.3054
1 29.9853 18.7213 55.1788
1 15.3413 29.5797 0.896536
1 29.6042 34.9374 61.9665
1 1.17729 32.1905 51.0061
1 24.9332 25.0258 49.9023
1 22.0778 35.8843 56.4044
1 26.8608 5.97299 42.5096
1 3.87318 14.471 52.5548
1 31.2075 36.4603 0.0721222
1 4.3014 35.5376 51.4201
1 4.04827 20.0408 66.9279
1 9.59192 13.1844 41.6098
1 16.0664 23.0548 10.4596
1 27.1531 0.754165 70.4128
1 26.6898 8.26153 20.0947
1 12.2026 0.901664 43.3652
1 20.8199 25.7037 37.1464
1 2.69914 35.3813 14.3931
1 3.0729 20.1235 19.1515
1 23.2902 14.3954 55.767
1 33.6465 12.3709 37.3985
1 19.5567 17.2008 58.2925
1 29.5835 6.65828 65.3406
1 31.6088 24.1204 11.0088
1 4.91539 20.719 30.7186
1 13.4235 11.5719 43.4038
1 15.0524 20.033 45.4227
1 25.6413 26.2039 53.4942
1 4.7572 23.7226 14.2441
1 16.0715 10.4248 13.2225
1 35.8926 2.74085 56.4418
1 26.8556 3.28385 23.8075
1 15.6011 26.2073 35.2568
1 27.1851 36.4394 41.1369
1 11.7739 16.0661 6.46186
1 6.45216 10.5273 39.4147
1 4.82623 16.7386 30.6387
1 23.0773 15.9958 59.1994
1 8.22932 11.9066 11.0303
1 5.04604 30.1534 64.7269
1 11.8109 19.5282 58.9045
1 29.5029 33.1149 15.3558
1 8.69763 13.7237 64.8102
1 31.3579 24.4989 14.6976
1 28.0698 9.799 69.1051
1 3.60896 13.451 60.3452
1 19.2389 16.3248 14.2245
1 24.3487 4.6947 49.2783
1 13.7228 34.6653 28.634
1 17.3531 18.9294 9.77535
1 17.1271 14.3432 41.83
1 17.8883 18.2344 61.5519
1 35.7579 14.5588 5.63823
1 30.6448 18.6288 40.8286
1 14.2683 14.3281 46.269
1 33.0007 14.4907 29.4115
1 7.54623 17.2538 47.7109
1 8.38918 18.7809 66.7453
1 1.92434 11.4068 62.9279
1 16.4123 5.89507 52.2993
1 19.4287 9.26589 19.2411
1 13.8203 31.5747 11.4916
1 5.08839 17.4582 9.63527
1 1.28163 25.6719 5.04247
1 31.7584 2.96956 37.1252
1 3.61418 7.18757 13.5428
1 19.8876 20.532 64.3708
1 0.329494 9.60287 30.3
1 4.49902 33.7215 64.9809
1 13.8392 4.55512 29.0876
1 24.2815 5.54595 20.586
1 25.6644 3.901 71.0991
1 17.2175 27.73 54.8517
1 2.0495 18.6405 33.3497
1 12.9079 31.3897 43.9023
1 29.4124 9.47259 49.229
1 16.5918 36.0676 4.68939
1 33.5824 5.03629 14.1275
1 27.7238 32.8986 4.7146
1 29.1026 20.7622 67.2093
1 6.75689 1.33734 19.8389
1 20.9091 26.8345 56.0695
1 29.3298 3.47957 71.4274
1 34.8479 33.6215 33.8691
1 5.85577 6.93495 70.6837
1 8.18193 12.3395 20.1122
1 34.0087 34.2761 38.8228
1 4.06345 28.0553 54.6901
1 26.5502 6.24531 67.664
1 21.2966 23.2478 71.0811
1 0.780481 28.681 39.2616
1 23.7884 8.45846 46.9651
1 34.8527 29.5792 5.24289
1 33.181 27.9877 15.7116
1 5.6368 16.2012 3.31866
1 25.0316 8.97891 55.7905
1 28.0164 1.19456 49.7864
1 14.0839 11.0747 47.2029
1 27.3232 11.6897 56.7249
1 36.4708 24.1267 27.6992
1 21.6635 34.8634 47.8484
1 1.513 5.64029 49.9949
1 35.2551 4.12504 27.6284
1 29.6819 1.83659 27.1957
1 32.4315 0.921186 3.69916
1 7.43911 13.948 23.4904
1 26.7242 22.4657 52.2754
1 33.8817 31.7446 44.1838
1 35.0249 34.4147 27.285
1 22.0755 12.5214 67.9523
1 7.58452 34.1649 50.3587
1 36.2771 30.1757 16.5678
1 27.212 4.61258 37.4613
1 19.0689 20.4839 21.8363
1 21.2017 18.9069 5.21501
1 27.6726 4.14535 52.8585
1 7.36448 16.4755 37.3468
1 2.74323 10.6145 33.0361
1 31.6203 1.46147 62.5607
1 19.3177 8.45543 25.141
1 3.05832 17.6751 60.7794
1 8.03781 17.5957 43.8704
1 29.0367 6.40882 5.02672
1 21.9373 19.5157 59.5321
1 31.008 15.6097 67.0497
1 24.514 35.9945 11.5088
1 5.49056 4.32012 29.7672
1 22.0793 1.42333 33.5025
1 21.077 18.9889 45.4926
1 33.7544 35.08 56.1852
1 27.8826 21.9254 25.5531
1 19.9172 7.73612 63.9638
1 0.222227 2.41068 14.3288
1 7.40802 17.0942 14.3141
1 33.8068 29.2576 8.6127
1 22.5747 32.1189 63.5602
1 1.08126 16.7353 29.238
1 10.1255 9.9084 42.8852
1 2.83887 23.5587 30.2218
1 16.3882 24.7943 7.39092
1 0.271912 18.4353 38.6074
1 0.908659 14.4355 50.5837
1 25.0623 24.9493 64.1604
1 0.0270976 21.9825 57.277
1 17.7482 7.92018 16.4733
1 9.75061 6.2875 5.98707
1 7.46058 1.60417 39.2493
1 5.8371 11.8948 58.2106
1 8.70204 13.0459 26.913
1 24.2533 5.14757 45.1552
1 33.5761 17.348 46.8051
1 19.6292 8.22502 57.3849
1 3.18842 8.47855 57.5963
1 24.5522 30.4377 30.1565
1 28.733 29.2107 53.8547
1 8.18302 20.9658 45.681
1 29.0125 6.64655 17.6589
1 28.2744 0.678983 19.8115
1 35.158 1.45171 39.0974
1 33.0816 21.2621 12.8484
1 17.3362 7.38758 41.6397
1 5.53665 33.8102 25.3285
1 36.1496 0.0642493 10.7877
1 15.6416 26.4023 51.7948
1 25.3049 13.006 70.5477
1 11.8702 6.63616 2.76733
1 11.232 34.2161 20.7768
1 3.06467 11.3024 42.1352
1 12.0726 28.411 21.3101
1 32.7052 21.6365 19.9376
1 31.6008 27.9268 2.08958
1 13.3261 15.6644 17.0351
1 28.422 3.38045 2.60918
1 35.015 18.3834 19.1837
1 32.1327 22.2697 32.9489
1 19.1916 29.5684 23.6153
1 11.8616 23.3053 12.4424
1 22.1768 31.1311 16.3671
1 0.30464 9.91797 72.6505
1 7.1456 26.8866 40.255
1 13.9262 20.0264 12.5199
1 14.0569 7.21514 6.77557
1 7.37781 33.4711 33.7982
1 14.8884 32.4512 34.8824
1 24.3326 33.2879 40.1622
1 33.0526 9.4839 64.082
1 7.68805 13.8636 46.0022
1 20.6816 23.9863 27.1298
1 17.4026 13.5863 2.77338
1 31.3361 12.9215 21.642
1 21.36 20.865 25.5335
1 26.8378 24.1054 59.7153
1 24.4586 29.2586 0.834178
1 8.71743 13.9831 30.3652
1 24.369 33.9009 15.1168
1 26.3844 2.9968 30.3274
1 27.7755 10.0273 34.7477
1 34.8564 25.2185 64.7266
1 21.8383 2.56985 68.0791
1 1.54817 1.90362 63.7858
1 33.1964 24.6248 40.0548
1 35.0797 28.3426 27.7004
1 21.0269 34.9333 38.6592
1 14.889 12.6564 16.351
1 21.7872 20.7599 40.7531
1 15.87 33.335 48.9821
1 34.5645 29.3925 54.2981
1 12.3498 30.8481 14.7937
1 6.59617 1.88567 45.1772
1 28.6409 13.1626 45.9482
1 21.6814 3.89912 58.2556
1 12.0933 27.3994 2.85212
1 32.303 15.5025 12.0705
1 11.9362 20.7606 62.2754
1 12.7138 28.5271 54.493
1 29.5565 17.0815 1.23475
1 14.1747 28.8583 57.7592
1 5.56793 5.15741 9.40416
1 33.3745 11.2351 71.5406
1 14.6307 17.1059 42.4551
1 10.6508 1.08767 34.927
1 9.24188 6.37438 40.9841
1 15.8681 27.9478 10.4871
1 2.79686 13.427 21.5516
1 12.4239 2.42013 5.71462
1 21.1534 20.4134 28.9462
1 22.3387 35.393 52.4785
1 16.3994 10.8788 50.7284
1 8.28745 27.8578 5.73106
1 21.147 24.4707 1.76949
1 35.5815 27.2494 68.1047
1 34.3164 18.6999 55.2614
1 0.828002 16.3806 35.894
1 0.69446 35.666 40.5186
1 35.7369 20.9517 15.5484
1 25.7105 20.8992 48.8792
1 36.1717 33.1691 13.6428
1 0.958899 28.4737 52.3173
1 32.5672 22.8218 50.4854
1 16.0538 28.608 70.052
1 28.3486 20.3155 3.41301
1 6.09782 21.1711 57.3856
1 16.9713 6.47681 65.8932
1 26.8246 18.3555 33.6878
1 33.8786 7.13136 31.4897
1 30.2402 17.3025 48.4758
1 27.9555 6.35586 46.4882
1 10.6225 20.0366 34.0135
1 10.4988 33.6379 41.9324
1 24.5072 3.62068 40.0957
1 35.7723 12.1862 52.2798
1 27.1117 32.3127 21.4138
1 26.3656 28.884 20.8354
1 5.26085 15.4751 16.8826
1 0.665173 21.6756 72.5905
1 12.2529 18.6934 67.3925
1 27.6277 6.05658 56.3928
1 4.91458 0.155564 22.2838
1 36.4155 25.8098 40.6351
1 15.2626 31.7942 27.0483
1 13.7219 33.9484 63.8872
1 21.37 14.8308 29.6274
1 3.43031 0.600674 38.8303
1 11.3581 9.3197 38.1837
1 24.1186 11.1555 58.0363
1 1.91615 13.0514 29.8553
1 28.9267 23.4375 48.7534
1 11.4091 20.0589 5.95292
1 1.2434 31.18 26.2909
1 7.99576 29.2729 30.0429
1 11.8201 6.11861 64.3479
1 25.2038 7.05855 52.5846
1 27.0422 36.1065 65.471
1 22.6359 17.7097 1.20122
1 11.8212 19.9823 15.561
1 14.3156 5.81881 35.137
1 30.5347 25.0073 3.63517
1 27.2813 11.8787 19.4217
1 21.6962 21.0889 32.4937
1 19.9601 14.3673 72.9611
1 22.1845 23.3228 22.4397
1 18.998 0.249751 68.5743
1 18.9902 25.0392 24.3708
1 5.16691 7.91465 48.3571
1 9.19088 20.2455 12.9596
1 11.2506 3.03466 57.6121
1 11.8405 4.28791 32.724
1 18.4552 17.8531 2.08632
1 3.87378 34.9472 31.3434
1 32.1007 9.61001 20.2355
1 23.0318 6.97852 65.9087
1 26.768 14.698 53.4335
1 16.4851 0.501105 29.4451
1 12.5988 12.1162 66.2085
1 8.46599 21.3552 63.7122
1 30.0014 5.38328 25.4609
1 4.6035 35.5999 35.5858
1 34.0656 12.1573 23.6662
1 19.0155 14.769 55.7909
1 21.8191 12.9885 33.2699
1 26.2248 22.5043 5.10396
1 1.08754 5.1428 30.2163
1 8.16183 20.5403 26.8205
1 16.3141 17.6613 49.7327
1 5.32592 26.5207 65.6818
1 27.6112 29.0285 10.7368
1 1.69322 17.8476 54.2963
1 6.89659 5.49966 12.7092
1 18.4502 13.5357 6.52426
1 9.46547 2.18624 63.2827
1 28.429 0.34798 37.7366
1 28.1715 5.6391 49.8065
1 20.6461 35.4987 30.6098
1 10.4507 20.1377 48.0622
1 35.0261 24.8534 72.0709
1 33.1036 2.46119 11.2742
1 32.1647 4.44656 29.1874
1 21.4513 31.2056 40.3632
1 9.07371 35.8964 23.5156
1 10.7993 18.2333 28.1746
1 1.59423 27.8692 64.6632
1 15.3015 32.5202 66.6625
1 29.4846 19.2972 18.8919