LAMMPS data file via write_data, version 29 Sep 2021, timestep = 0

11271 atoms
2 atom types
7514 bonds
1 bond types
3757 angles
1 angle types

-35.699999999999996 35.699999999999996 xlo xhi
-35.699999999999996 35.699999999999996 ylo yhi
-35.699999999999996 35.699999999999996 zlo zhi

Masses

1 15.9994
2 1.008

Pair Coeffs # lj/cut/tip4p/cut

1 0.185199 3.1589
2 0 0

Bond Coeffs # harmonic

1 0 0.9572

Angle Coeffs # harmonic

1 0 104.52

Atoms # full

1 1 1 -1.1128 -32.21155928943776 -32.22600024600218 -23.76088176489539 0 0 0
2 1 2 0.5564 -31.848855003309236 -31.35769533694255 -23.579160148880828 0 0 0
3 1 2 0.5564 -31.939585707253002 -32.416304417055265 -24.65995808622378 0 0 0
4 2 1 -1.1128 -28.144485342334807 -32.036151866879514 -24.361701538386995 0 0 0
5 2 2 0.5564 -27.552789848138442 -32.63500169084378 -23.903655808698694 0 0 0
6 2 2 0.5564 -28.30272480952675 -31.328846442276706 -23.73464265291431 0 0 0
7 3 1 -1.1128 -23.71995982844758 -32.23632777253995 -23.863114424634304 0 0 0
8 3 2 0.5564 -24.311438968847895 -31.674600585938553 -23.359978703079793 0 0 0
9 3 2 0.5564 -23.968601202704523 -32.0890716415215 -24.776906872285902 0 0 0
10 4 1 -1.1128 -20.285925874808783 -32.26448140966716 -23.963848201216223 0 0 0
11 4 2 0.5564 -19.34005194909366 -32.418905843471194 -23.961364072282308 0 0 0
12 4 2 0.5564 -20.374022176097558 -31.316612746861644 -24.07478772650147 0 0 0
13 5 1 -1.1128 -16.244849479369748 -32.08260482186997 -23.706340077034344 0 0 0
14 5 2 0.5564 -16.468383574267904 -31.847646240502485 -24.60820344443533 0 0 0
15 5 2 0.5564 -15.28676694636235 -32.069748937627544 -23.685456478530327 0 0 0
16 6 1 -1.1128 -12.049052517186839 -32.38780387921738 -23.985406291712195 0 0 0
17 6 2 0.5564 -11.845707331384563 -31.794416525688543 -23.260787257955087 0 0 0
18 6 2 0.5564 -12.105240151428598 -31.81777959509408 -24.753806450332714 0 0 0
19 7 1 -1.1128 -8.244700433520588 -32.305154214805945 -24.003684768785792 0 0 0
20 7 2 0.5564 -7.286569250206341 -32.32113993056046 -24.01979850369289 0 0 0
21 7 2 0.5564 -8.46873031627307 -31.37370585463359 -23.976516727521318 0 0 0
22 8 1 -1.1128 -4.326483244994336 -32.203950610022595 -24.069453681755405 0 0 0
23 8 2 0.5564 -4.102127100890694 -31.705916836298226 -23.281953052655457 0 0 0
24 8 2 0.5564 -3.57138965411497 -32.09013255367918 -24.648593265589138 0 0 0
25 9 1 -1.1128 -0.2919199644123771 -32.24788020284179 -24.079681327276774 0 0 0
26 9 2 0.5564 0.3862102949097387 -31.928580022341677 -24.676939484294586 0 0 0
27 9 2 0.5564 -0.09429033049736149 -31.82353977481653 -23.243379188428644 0 0 0
28 10 1 -1.1128 3.9624260879171875 -31.99140431246895 -23.61073750529153 0 0 0
29 10 2 0.5564 4.426840661332464 -32.640606853033496 -24.141195538809775 0 0 0
30 10 2 0.5564 3.6107332507503482 -31.367988834497552 -24.248066955898697 0 0 0
31 11 1 -1.1128 7.651896307599505 -32.08369055201931 -23.842422446586312 0 0 0
32 11 2 0.5564 8.345420055762661 -31.5337556170305 -23.474826285000564 0 0 0
33 11 2 0.5564 8.002683636637833 -32.38255383095019 -24.682751268413124 0 0 0
34 12 1 -1.1128 12.323291969096399 -31.917644020715958 -24.204232147062942 0 0 0
35 12 2 0.5564 11.64381124899317 -31.30889026918247 -23.91053948286803 0 0 0
36 12 2 0.5564 12.03289678191043 -32.77346571010157 -23.885228370069026 0 0 0
37 13 1 -1.1128 16.131771375092978 -31.930295615417712 -24.36164703507164 0 0 0
38 13 2 0.5564 15.38363414604137 -32.47098102733352 -24.103808845797023 0 0 0
39 13 2 0.5564 16.484594478865652 -31.59872335724877 -23.534544119131333 0 0 0
40 14 1 -1.1128 20.116068588155965 -31.677916608143107 -24.189212436254703 0 0 0
41 14 2 0.5564 19.482753721736056 -32.33467843001753 -24.48265195182771 0 0 0
42 14 2 0.5564 20.401177690107982 -31.98740496183936 -23.328135611917585 0 0 0
43 15 1 -1.1128 23.75524904891307 -32.24794971431973 -24.17784511691583 0 0 0
44 15 2 0.5564 24.541178992678567 -32.46069351300051 -23.67229120325712 0 0 0
45 15 2 0.5564 23.703571958408364 -31.291356772679762 -24.14986367982705 0 0 0
46 16 1 -1.1128 27.95771742533282 -32.31271961451137 -23.768851560508466 0 0 0
47 16 2 0.5564 28.399622654292557 -31.487266859408518 -23.56421022130462 0 0 0
48 16 2 0.5564 27.642659920374623 -32.200013526080106 -24.66693821818691 0 0 0
49 17 1 -1.1128 32.37175607427112 -31.972480254628547 -23.881462835544223 0 0 0
50 17 2 0.5564 32.0179293719163 -31.78358398582766 -24.75189687918786 0 0 0
51 17 2 0.5564 31.61031455381258 -32.24393575954379 -23.366640285267916 0 0 0
52 18 1 -1.1128 -32.3152547380741 -28.164384807303076 -24.163104444298007 0 0 0
53 18 2 0.5564 -31.922828285891715 -28.365140816606715 -23.312087955411908 0 0 0
54 18 2 0.5564 -31.761916976034186 -27.47047437609021 -24.524807600290085 0 0 0
55 19 1 -1.1128 -28.29519242291388 -28.254092351482647 -23.963813194776908 0 0 0
56 19 2 0.5564 -27.984229458475614 -27.82586512600043 -24.762846384390187 0 0 0
57 19 2 0.5564 -27.72057811861051 -27.920042522516923 -23.273340420832906 0 0 0
58 20 1 -1.1128 -24.351343390228806 -28.166458154472846 -23.95686672453866 0 0 0
59 20 2 0.5564 -23.492265446125206 -28.588734407929252 -23.909979501102487 0 0 0
60 20 2 0.5564 -24.15639116364599 -27.244807437597903 -24.133153774358853 0 0 0
61 21 1 -1.1128 -19.71016587755822 -27.764474911533377 -23.88365960000416 0 0 0
62 21 2 0.5564 -20.207661708138 -27.7226487653398 -24.701754357382747 0 0 0
63 21 2 0.5564 -20.08217241430378 -28.51287632312682 -23.41458604261309 0 0 0
64 22 1 -1.1128 -15.615180530171193 -27.948973029417687 -23.95182118293412 0 0 0
65 22 2 0.5564 -16.177699265205653 -28.601365251649547 -23.531716885042982 0 0 0
66 22 2 0.5564 -16.207120204623156 -27.449661718932767 -24.5164619320229 0 0 0
67 23 1 -1.1128 -12.207346086037152 -27.957581930153243 -24.328966992957575 0 0 0
68 23 2 0.5564 -12.528235833474401 -28.20807910325308 -23.46131988943066 0 0 0
69 23 2 0.5564 -11.264418080488447 -27.834338966593677 -24.209713117611766 0 0 0
70 24 1 -1.1128 -8.082656149719371 -27.88306889377304 -24.364013807169602 0 0 0
71 24 2 0.5564 -7.845562009829314 -28.76400993209401 -24.070313592951486 0 0 0
72 24 2 0.5564 -8.071781840451314 -27.352921174132952 -23.565672599878912 0 0 0
73 25 1 -1.1128 -4.287516750711569 -28.009366680500804 -24.265061045528494 0 0 0
74 25 2 0.5564 -3.9685686212011326 -28.730018697533872 -23.719659064391678 0 0 0
75 25 2 0.5564 -3.743914628087299 -27.260614621965324 -24.01527989007983 0 0 0
76 26 1 -1.1128 0.11965094082757877 -28.365122147049846 -24.07335151390931 0 0 0
77 26 2 0.5564 0.5868991667577433 -27.547566997119695 -24.251714156264153 0 0 0
78 26 2 0.5564 -0.706550107585322 -28.087310855830463 -23.674934329826538 0 0 0
79 27 1 -1.1128 4.024825814877206 -27.775414660479 -23.68069438043166 0 0 0
80 27 2 0.5564 4.459065260394343 -27.644910543972728 -24.52504936474329 0 0 0
81 27 2 0.5564 3.5161089247284516 -28.57967479554827 -23.79425625482505 0 0 0
82 28 1 -1.1128 7.80559271326003 -28.00730315605945 -24.33935740049979 0 0 0
83 28 2 0.5564 7.4814802004252625 -27.722787634208146 -23.483476242365313 0 0 0
84 28 2 0.5564 8.712927086314707 -28.269909209732404 -24.177166357134897 0 0 0
85 29 1 -1.1128 11.862559970151333 -28.33914011761586 -23.861778462898506 0 0 0
86 29 2 0.5564 12.566527795129446 -27.799644785890333 -23.49859166737594 0 0 0
87 29 2 0.5564 11.570912234719223 -27.861215096493808 -24.639629869725553 0 0 0
88 30 1 -1.1128 15.931138099969205 -27.692129932816172 -23.768731681900928 0 0 0
89 30 2 0.5564 16.039589143962427 -28.608326233753132 -23.50920659793753 0 0 0
90 30 2 0.5564 16.029272756068366 -27.699543833430695 -24.72206172016154 0 0 0
91 31 1 -1.1128 19.756301003298855 -27.74529968496605 -23.830443156940035 0 0 0
92 31 2 0.5564 20.589490229625074 -27.55926568079834 -24.266009021565868 0 0 0
93 31 2 0.5564 19.654208767076074 -28.69543463423561 -23.903547821494097 0 0 0
94 32 1 -1.1128 23.94901384534978 -28.064078668776613 -24.382498772209534 0 0 0
95 32 2 0.5564 24.733610887711528 -28.233150058319616 -23.85871169108287 0 0 0
96 32 2 0.5564 23.317375266938694 -27.70277127290377 -23.758789536707596 0 0 0
97 33 1 -1.1128 28.10103688378507 -28.364161077015503 -24.100941728744424 0 0 0
98 33 2 0.5564 27.446145738087363 -27.800616688493886 -24.515749960886147 0 0 0
99 33 2 0.5564 28.45281737812757 -27.83522223449061 -23.38330831036943 0 0 0
100 34 1 -1.1128 31.651421266163478 -28.12053639680128 -23.869712556771223 0 0 0
101 34 2 0.5564 32.466255655533104 -28.622954477617153 -23.91609735999305 0 0 0
102 34 2 0.5564 31.88232307830342 -27.256509125581566 -24.214190083235728 0 0 0
103 35 1 -1.1128 -32.345485676905206 -23.937571392178995 -24.17249142146462 0 0 0
104 35 2 0.5564 -32.06803313729885 -24.709623284908997 -23.67702545573336 0 0 0
105 35 2 0.5564 -31.58648118579595 -23.35280532291201 -24.15048312280202 0 0 0
106 36 1 -1.1128 -28.28015906659432 -24.272972227352422 -23.997165392574214 0 0 0
107 36 2 0.5564 -27.33711838298402 -24.40120497363001 -24.110130837901213 0 0 0
108 36 2 0.5564 -28.38272255042166 -23.325822799017573 -23.892703769524573 0 0 0
109 37 1 -1.1128 -24.275362774273585 -23.990659481807548 -24.27766719605357 0 0 0
110 37 2 0.5564 -23.46558974025569 -23.479641634653085 -24.236936946028905 0 0 0
111 37 2 0.5564 -24.259047485470727 -24.529698883539368 -23.485395857917524 0 0 0
112 38 1 -1.1128 -20.265071197390117 -24.101837012817064 -24.269030588659852 0 0 0
113 38 2 0.5564 -19.42812446359794 -23.656395184014766 -24.409145905266826 0 0 0
114 38 2 0.5564 -20.306804339011943 -24.241767803168173 -23.321823506073322 0 0 0
115 39 1 -1.1128 -16.252263776839932 -24.03869031899011 -23.70355941470356 0 0 0
116 39 2 0.5564 -15.71265209344474 -24.71998281881693 -24.107527632293912 0 0 0
117 39 2 0.5564 -16.03508412971533 -23.24132686219296 -24.18891295300253 0 0 0
118 40 1 -1.1128 -12.331957846368336 -24.05339249167229 -23.80008950861068 0 0 0
119 40 2 0.5564 -12.212058357307958 -24.06028367288726 -24.750935018746013 0 0 0
120 40 2 0.5564 -11.455983796323705 -23.886323835440447 -23.448975472643312 0 0 0
121 41 1 -1.1128 -7.961533905660776 -24.305572605850827 -23.75884296269895 0 0 0
122 41 2 0.5564 -7.280042631773136 -23.882828431972214 -24.283616787376484 0 0 0
123 41 2 0.5564 -8.758423462566087 -23.81159896217696 -23.957540249924566 0 0 0
124 42 1 -1.1128 -4.305400946129843 -24.20194381505766 -24.13769506949399 0 0 0
125 42 2 0.5564 -3.406127901840451 -24.509527461206943 -24.014281729712575 0 0 0
126 42 2 0.5564 -4.2884711520297065 -23.2885287237354 -23.848023200793435 0 0 0
127 43 1 -1.1128 -0.37268289049453357 -23.962515051976457 -24.11275334276336 0 0 0
128 43 2 0.5564 0.023738447799495688 -24.688622736660086 -23.628864602670614 0 0 0
129 43 2 0.5564 0.34894444269503777 -23.348862211363457 -24.258382054566027 0 0 0
130 44 1 -1.1128 3.711073911048115 -24.259734018057333 -23.954492533725105 0 0 0
131 44 2 0.5564 4.640325271948551 -24.43673154444453 -24.1084222057104 0 0 0
132 44 2 0.5564 3.648600817003334 -23.303534437498136 -23.937085260564494 0 0 0
133 45 1 -1.1128 8.150312510484556 -23.758789289246504 -23.73123520187788 0 0 0
134 45 2 0.5564 7.316826232153756 -24.230557850465154 -23.695659810383752 0 0 0
135 45 2 0.5564 8.53286125736169 -24.010652860288342 -24.57310498773837 0 0 0
136 46 1 -1.1128 12.126652827885936 -24.36349475449907 -23.93041839941366 0 0 0
137 46 2 0.5564 11.260896363633064 -24.09298726613678 -24.23996969297305 0 0 0
138 46 2 0.5564 12.612450808480999 -23.54351797936415 -23.829611907613288 0 0 0
139 47 1 -1.1128 15.677122998180407 -23.783672879877905 -23.955683036028287 0 0 0
140 47 2 0.5564 16.445425337545103 -23.81511814146605 -23.383622487790266 0 0 0
141 47 2 0.5564 15.877451664274489 -24.401208978656044 -24.66069447618145 0 0 0
142 48 1 -1.1128 19.697535951600088 -23.860019933216183 -24.204773178977945 0 0 0
143 48 2 0.5564 19.675917213362272 -24.48898048288673 -23.48195105900988 0 0 0
144 48 2 0.5564 20.62654683503764 -23.650999583897086 -24.313275762012175 0 0 0
145 49 1 -1.1128 23.801485639751217 -24.100571418397692 -24.321696150235734 0 0 0
146 49 2 0.5564 24.7501624083545 -24.121428334091405 -24.18713041247098 0 0 0
147 49 2 0.5564 23.44835195189428 -23.778000247510903 -23.491173437293284 0 0 0
148 50 1 -1.1128 27.742223586339296 -24.274014557911762 -24.107136908265296 0 0 0
149 50 2 0.5564 28.69652484589313 -24.301206716640046 -24.191399904400377 0 0 0
150 50 2 0.5564 27.561251567767574 -23.42477872544819 -23.70146318733433 0 0 0
151 51 1 -1.1128 31.708012621077792 -24.26025180278237 -24.004831583453143 0 0 0
152 51 2 0.5564 32.64056216349631 -24.42181002238577 -24.15576485550931 0 0 0
153 51 2 0.5564 31.651425215425895 -23.31793817483186 -23.839403561037543 0 0 0
154 52 1 -1.1128 -32.11960029069719 -19.632756059835813 -23.938043294327166 0 0 0
155 52 2 0.5564 -31.302786218056937 -20.04084772366607 -23.64682769610295 0 0 0
156 52 2 0.5564 -32.57761349124587 -20.326396216498114 -24.415129009569885 0 0 0
157 53 1 -1.1128 -28.19824004821707 -20.335895448435092 -23.97023247569108 0 0 0
158 53 2 0.5564 -27.2783396577985 -20.21687500136808 -24.21137136697105 0 0 0
159 53 2 0.5564 -28.52342029398443 -19.447229550196827 -23.81839615733787 0 0 0
160 54 1 -1.1128 -24.04589362534061 -20.334869971954774 -24.196892995142296 0 0 0
161 54 2 0.5564 -23.971641418780912 -20.217191158015133 -23.248647844049618 0 0 0
162 54 2 0.5564 -23.982464955878477 -19.447938870030093 -24.554459160808086 0 0 0
163 55 1 -1.1128 -20.239105002967875 -20.30957938805228 -23.99938799599098 0 0 0
164 55 2 0.5564 -19.280726877546822 -20.308414164170394 -24.005757530332794 0 0 0
165 55 2 0.5564 -20.480168119485302 -19.382006447777325 -23.994854473676227 0 0 0
166 56 1 -1.1128 -16.302556442598284 -20.194167724920785 -24.154173500126824 0 0 0
167 56 2 0.5564 -16.055362952858147 -20.1308116212196 -23.230370521806286 0 0 0
168 56 2 0.5564 -15.642080604543567 -19.675020653859615 -24.615455978066887 0 0 0
169 57 1 -1.1128 -12.04307574646129 -20.020083475380297 -23.61173191145363 0 0 0
170 57 2 0.5564 -12.72993573855253 -20.036648736014982 -24.279923129148482 0 0 0
171 57 2 0.5564 -11.22698851498618 -19.94326778860472 -24.10834495939789 0 0 0
172 58 1 -1.1128 -8.207166401479611 -19.868292844988282 -23.69545725765222 0 0 0
173 58 2 0.5564 -7.876382565867506 -20.756087977717936 -23.840137651622094 0 0 0
174 58 2 0.5564 -7.9164510326528825 -19.375619177293782 -24.464405090725688 0 0 0
175 59 1 -1.1128 -4.298624297356001 -20.250402080366474 -24.03366454628799 0 0 0
176 59 2 0.5564 -3.622933873930302 -20.052212704856537 -24.68381374695333 0 0 0
177 59 2 0.5564 -4.0784418287136965 -19.69738521477699 -23.282521706758676 0 0 0
178 60 1 -1.1128 0.20779263954486932 -20.322152239199976 -23.922211001874196 0 0 0
179 60 2 0.5564 0.1170267572815617 -19.53726489388022 -23.379768406041357 0 0 0
180 60 2 0.5564 -0.3248193968264309 -20.1405828669198 -24.698020592084447 0 0 0
181 61 1 -1.1128 4.042192109474824 -20.290252301022537 -23.74118654952034 0 0 0
182 61 2 0.5564 4.674680855604285 -19.605126982335168 -23.962753342413848 0 0 0
183 61 2 0.5564 3.2831270349208914 -20.104620716642298 -24.29606010806581 0 0 0
184 62 1 -1.1128 7.809482413381852 -19.767054080693182 -23.750099575095405 0 0 0
185 62 2 0.5564 8.212446226766414 -20.617471995171393 -23.56860550952548 0 0 0
186 62 2 0.5564 7.978071359851735 -19.615473924135426 -24.68129491537912 0 0 0
187 63 1 -1.1128 11.982810233457293 -20.343996188586992 -24.18542413182709 0 0 0
188 63 2 0.5564 12.70806594752732 -19.992640371177313 -23.666691253766373 0 0 0
189 63 2 0.5564 11.309123819015387 -19.663363440235695 -24.147884614406536 0 0 0
190 64 1 -1.1128 15.691969961648185 -20.238707716781366 -23.966131195444667 0 0 0
191 64 2 0.5564 15.768910407813792 -19.453742046655442 -24.51059388881089 0 0 0
192 64 2 0.5564 16.53911963053802 -20.30755023656319 -23.52327491574444 0 0 0
193 65 1 -1.1128 20.20365738589482 -19.90405200451122 -24.31988845842289 0 0 0
194 65 2 0.5564 20.43053881356516 -20.553718615947265 -23.652813746142865 0 0 0
195 65 2 0.5564 19.365803800540018 -19.542229379541514 -24.027297795434244 0 0 0
196 66 1 -1.1128 23.960583163333695 -20.37693179039297 -23.903151082203397 0 0 0
197 66 2 0.5564 24.495477652173268 -19.711910646828503 -23.46707158896706 0 0 0
198 66 2 0.5564 23.543939184493038 -19.911157562778527 -24.62977732882954 0 0 0
199 67 1 -1.1128 27.687991523452848 -19.977044739103132 -23.76519211882928 0 0 0
200 67 2 0.5564 27.84321590776011 -19.501807236443298 -24.582862753365017 0 0 0
201 67 2 0.5564 28.46879256878704 -20.521148024453566 -23.6519451278057 0 0 0
202 68 1 -1.1128 31.82761740328555 -20.34713295014958 -23.947142363177747 0 0 0
203 68 2 0.5564 32.76086771461854 -20.139311677217417 -23.880925032261064 0 0 0
204 68 2 0.5564 31.41151488209591 -19.513555372633004 -24.171932604561192 0 0 0
205 69 1 -1.1128 -31.86291921594212 -16.345839719603557 -23.879108637667485 0 0 0
206 69 2 0.5564 -32.13388754000251 -16.099152961081852 -24.76468888277572 0 0 0
207 69 2 0.5564 -32.00319324405537 -15.555007319314592 -23.356202479556796 0 0 0
208 70 1 -1.1128 -28.192553744542153 -16.340061789756874 -24.017088274054082 0 0 0
209 70 2 0.5564 -27.47206550293529 -16.102525802123374 -23.431422918850934 0 0 0
210 70 2 0.5564 -28.335380752522557 -15.557412408119752 -24.551488807094984 0 0 0
211 71 1 -1.1128 -24.02668858636182 -16.389976790631238 -23.985275984685988 0 0 0
212 71 2 0.5564 -23.87083562788039 -15.784670103042927 -23.258747093799016 0 0 0
213 71 2 0.5564 -24.10247578575779 -15.825353106325835 -24.755976921514996 0 0 0
214 72 1 -1.1128 -19.66745899575078 -16.20108782550132 -24.04462220779019 0 0 0
215 72 2 0.5564 -20.46579794010723 -16.48000526377072 -23.593633790474325 0 0 0
216 72 2 0.5564 -19.86674306414199 -15.318906910727959 -24.361744001735484 0 0 0
217 73 1 -1.1128 -16.186783491688917 -15.938604764000184 -23.66183801702583 0 0 0
218 73 2 0.5564 -15.8302123159948 -16.763962995926395 -23.993758708842044 0 0 0
219 73 2 0.5564 -15.983004192316281 -15.297432240073421 -24.344403274132123 0 0 0
220 74 1 -1.1128 -12.387659286759234 -16.026632628884215 -23.95503384641714 0 0 0
221 74 2 0.5564 -11.880489192192561 -15.262984472722207 -24.234588042893602 0 0 0
222 74 2 0.5564 -11.731851521048204 -16.71038289839358 -23.810378110689253 0 0 0
223 75 1 -1.1128 -8.321200013082642 -16.220493644480648 -24.03498683808737 0 0 0
224 75 2 0.5564 -7.67822230900523 -16.00857121723572 -24.713366611437046 0 0 0
225 75 2 0.5564 -8.000577677912128 -15.770935138283633 -23.251646550475584 0 0 0
226 76 1 -1.1128 -4.296984559920765 -16.203415148950953 -23.846920207584635 0 0 0
227 76 2 0.5564 -3.58276647023131 -16.530860203099394 -24.395739683254067 0 0 0
228 76 2 0.5564 -4.120248969847925 -15.265724647949654 -23.757340109161298 0 0 0
229 77 1 -1.1128 -0.11352007578063325 -16.371891419804985 -24.04267245915332 0 0 0
230 77 2 0.5564 0.6861726996920425 -16.04658863612018 -23.626499269502997 0 0 0
231 77 2 0.5564 -0.5726526239114093 -15.581519944074836 -24.330828271343684 0 0 0
232 78 1 -1.1128 3.848565432258177 -16.296275341187844 -23.794331654363454 0 0 0
233 78 2 0.5564 4.766151239989743 -16.156295198284365 -24.033020583814174 0 0 0
234 78 2 0.5564 3.3852833277520795 -15.54742946052779 -24.172647761822372 0 0 0
235 79 1 -1.1128 7.711984888593596 -16.23471138652229 -24.122347190970377 0 0 0
236 79 2 0.5564 8.645835166387624 -16.438836475921175 -24.053157838162917 0 0 0
237 79 2 0.5564 7.642179945018779 -15.326452137556537 -23.824494970866706 0 0 0
238 80 1 -1.1128 12.250611018794123 -16.289956621551216 -23.92170409092694 0 0 0
239 80 2 0.5564 11.391628680787125 -16.134042539870777 -23.52626673542575 0 0 0
240 80 2 0.5564 12.357760300418752 -15.576000838578008 -24.55202917364731 0 0 0
241 81 1 -1.1128 16.335913852724886 -15.837315831264053 -23.88292430102614 0 0 0
242 81 2 0.5564 15.681364879248616 -16.284331789066986 -23.344154466318695 0 0 0
243 81 2 0.5564 15.9827212680265 -15.87835237966896 -24.772921232655168 0 0 0
244 82 1 -1.1128 20.016302791749876 -16.26014199241711 -23.708330088520576 0 0 0
245 82 2 0.5564 20.706562393319604 -15.663439104571205 -24.00161818251206 0 0 0
246 82 2 0.5564 19.27713481493052 -16.07641890301168 -24.290051728967363 0 0 0
247 83 1 -1.1128 23.817822619746252 -16.32574586341381 -23.882901711828605 0 0 0
248 83 2 0.5564 24.68704395842267 -16.014742945600094 -23.625487630044162 0 0 0
249 83 2 0.5564 23.495133421831074 -15.659511190986093 -24.491610658127232 0 0 0
250 84 1 -1.1128 27.976731928190805 -15.863905421650669 -24.365988848297594 0 0 0
251 84 2 0.5564 27.40730445435147 -16.507805816127085 -23.94210773993103 0 0 0
252 84 2 0.5564 28.61596361745773 -15.628288762222247 -23.691903411771374 0 0 0
253 85 1 -1.1128 31.740687134858906 -16.29002746032187 -24.040643384843808 0 0 0
254 85 2 0.5564 32.69699987686379 -16.353101057005976 -24.044911977167832 0 0 0
255 85 2 0.5564 31.562312988277302 -15.356871482672155 -23.91444463798836 0 0 0
256 86 1 -1.1128 -32.19109829367728 -12.339622666446646 -24.033894853433882 0 0 0
257 86 2 0.5564 -31.243797373809947 -12.201343487707081 -23.9888349383693 0 0 0
258 86 2 0.5564 -32.565104332512774 -11.459033845846273 -23.977270208196817 0 0 0
259 87 1 -1.1128 -28.052028067004514 -12.143275565768057 -23.63975540670592 0 0 0
260 87 2 0.5564 -27.574299041652697 -11.352022676411558 -23.893180747627845 0 0 0
261 87 2 0.5564 -28.373672891342792 -12.504701757820385 -24.467063845666235 0 0 0
262 88 1 -1.1128 -24.38242388949279 -11.949844397107805 -23.934828236607217 0 0 0
263 88 2 0.5564 -23.967150582755643 -12.539711884444877 -24.565807624617825 0 0 0
264 88 2 0.5564 -23.650425527751565 -11.510443718447318 -23.499364138774958 0 0 0
265 89 1 -1.1128 -20.011005662538285 -12.100671656823303 -23.622170584251908 0 0 0
266 89 2 0.5564 -20.48509770034876 -12.504027528947123 -24.350917001126763 0 0 0
267 89 2 0.5564 -19.503896637112955 -11.395300814229575 -24.02691241462133 0 0 0
268 90 1 -1.1128 -16.181028656796823 -11.653245378729856 -23.999087560337706 0 0 0
269 90 2 0.5564 -16.466547073994192 -12.465315655179396 -23.577718767534684 0 0 0
270 90 2 0.5564 -15.352424269208985 -11.88143896609075 -24.42319367212761 0 0 0
271 91 1 -1.1128 -11.887182104657114 -12.181009610939565 -24.327900316770066 0 0 0
272 91 2 0.5564 -11.755391869139762 -11.26203496837297 -24.089892963644417 0 0 0
273 91 2 0.5564 -12.357426026203123 -12.556955420687466 -23.582206719585518 0 0 0
274 92 1 -1.1128 -7.79642429942303 -12.27731977893627 -23.813823608249237 0 0 0
275 92 2 0.5564 -8.74636969505516 -12.150397982065163 -23.818839861465076 0 0 0
276 92 2 0.5564 -7.457206005521809 -11.572282238998566 -24.36733653028569 0 0 0
277 93 1 -1.1128 -4.28275837076562 -12.258178809347507 -23.919985122221703 0 0 0
278 93 2 0.5564 -3.4755318377457938 -12.406633429572812 -24.414835715959402 0 0 0
279 93 2 0.5564 -4.241709791488586 -11.33518776107968 -23.665179161818898 0 0 0
280 94 1 -1.1128 0.35676481516903125 -12.12441425053927 -24.10124690326207 0 0 0
281 94 2 0.5564 -0.3136921118536779 -11.740618264085521 -24.668449433042447 0 0 0
282 94 2 0.5564 -0.043072703315353345 -12.134967485375212 -23.23030366369548 0 0 0
283 95 1 -1.1128 3.854545279154844 -12.362730867110937 -24.016739675289717 0 0 0
284 95 2 0.5564 4.718055287681171 -12.06295192962946 -24.30486050726363 0 0 0
285 95 2 0.5564 3.4273994331639845 -11.574317203259602 -23.678399817446653 0 0 0
286 96 1 -1.1128 8.190486918153741 -12.338916932994303 -24.04313955310413 0 0 0
287 96 2 0.5564 8.518525008324179 -11.455261343024821 -24.216559187843163 0 0 0
288 96 2 0.5564 7.29098807352208 -12.205821723980874 -23.740301259052707 0 0 0
289 97 1 -1.1128 11.917806719737806 -12.36955044580364 -23.901573849074182 0 0 0
290 97 2 0.5564 12.741357352511418 -12.024342179516228 -24.249605698399815 0 0 0
291 97 2 0.5564 11.340835927750776 -11.606107374680132 -23.848820452526002 0 0 0
292 98 1 -1.1128 16.050832341092857 -12.306144348508024 -24.238123256897804 0 0 0
293 98 2 0.5564 16.61394134954277 -12.025174896168565 -23.515285120483696 0 0 0
294 98 2 0.5564 15.335226309364375 -11.668680755323411 -24.2465916226185 0 0 0
295 99 1 -1.1128 19.826649298419856 -12.3439916471048 -24.068045980658653 0 0 0
296 99 2 0.5564 20.765953219256605 -12.159043592409414 -24.02295805139703 0 0 0
297 99 2 0.5564 19.407397482323535 -11.496964760485785 -23.908995967944318 0 0 0
298 100 1 -1.1128 23.874833067782927 -12.363794003048927 -24.070697502961593 0 0 0
299 100 2 0.5564 24.77104850346331 -12.076407655708662 -23.889762320615404 0 0 0
300 100 2 0.5564 23.354118428753765 -11.559798341242411 -24.039540176423003 0 0 0
301 101 1 -1.1128 27.97284421428539 -12.234690343807813 -24.31175949115559 0 0 0
302 101 2 0.5564 28.219056717008034 -11.308623626604897 -24.294141353000047 0 0 0
303 101 2 0.5564 27.808099068706575 -12.45668602958729 -23.394099155844362 0 0 0
304 102 1 -1.1128 31.790717962790477 -12.32556136260596 -23.94323907524025 0 0 0
305 102 2 0.5564 32.66087323289487 -12.248676894654736 -24.337509470397432 0 0 0
306 102 2 0.5564 31.548408804314647 -11.425761742739304 -23.71925145436232 0 0 0
307 103 1 -1.1128 -31.809780952879265 -8.044862317706983 -24.338843711853176 0 0 0
308 103 2 0.5564 -32.75225537184568 -8.117859123659416 -24.180907028607404 0 0 0
309 103 2 0.5564 -31.43796367527506 -7.837278558633601 -23.48024925953942 0 0 0
310 104 1 -1.1128 -28.304139775810125 -7.76036020742553 -24.055522437671907 0 0 0
311 104 2 0.5564 -27.981087716573313 -8.444442489634842 -24.64390951960875 0 0 0
312 104 2 0.5564 -27.714772507616562 -7.795197302939628 -23.30056804271934 0 0 0
313 105 1 -1.1128 -23.939934323259415 -8.299731284228388 -23.755942125239734 0 0 0
314 105 2 0.5564 -23.334249913280146 -7.589439322600035 -23.973110918472578 0 0 0
315 105 2 0.5564 -24.72581576346044 -8.110829393171576 -24.270946956287688 0 0 0
316 106 1 -1.1128 -20.281528873039818 -7.876839456917686 -23.757958787037 0 0 0
317 106 2 0.5564 -19.921227188498555 -8.761407749329873 -23.83702959186228 0 0 0
318 106 2 0.5564 -19.797243938461627 -7.361752793752441 -24.40501162110072 0 0 0
319 107 1 -1.1128 -15.721966917679874 -8.073441124845983 -23.734830279223047 0 0 0
320 107 2 0.5564 -16.648464032888675 -7.88579013411971 -23.576967170203822 0 0 0
321 107 2 0.5564 -15.629569049431451 -8.040768741034308 -24.688202550573127 0 0 0
322 108 1 -1.1128 -11.837629026173305 -8.355872605231477 -24.00115334484533 0 0 0
323 108 2 0.5564 -11.491149360385826 -7.554122760217349 -23.60659081847515 0 0 0
324 108 2 0.5564 -12.671221613440869 -8.090004634551175 -24.392255836679514 0 0 0
325 109 1 -1.1128 -7.789114588845305 -8.322163484207133 -23.93108695837771 0 0 0
326 109 2 0.5564 -7.937841725977006 -7.886953486437708 -24.771921696315044 0 0 0
327 109 2 0.5564 -8.273043685177688 -7.790883029355159 -23.296991345307248 0 0 0
328 110 1 -1.1128 -4.2732339381822735 -8.269824461637173 -24.07449127081488 0 0 0
329 110 2 0.5564 -3.3296009735680796 -8.40289073617594 -23.972605282210946 0 0 0
330 110 2 0.5564 -4.397165088249648 -7.327284802186887 -23.95290344697417 0 0 0
331 111 1 -1.1128 -0.31345272282462744 -7.936772211296396 -23.774698842014782 0 0 0
332 111 2 0.5564 0.41799815679462843 -7.340805311725341 -23.943024791647872 0 0 0
333 111 2 0.5564 -0.10454543397000104 -8.722422476978263 -24.282276366337346 0 0 0
334 112 1 -1.1128 3.7907546825547067 -8.323952963972657 -24.06543583697447 0 0 0
335 112 2 0.5564 4.735369671434055 -8.255225568139467 -23.91877422697902 0 0 0
336 112 2 0.5564 3.4738756460112383 -7.420821467887876 -24.01578993604651 0 0 0
337 113 1 -1.1128 8.204043336335216 -8.286692446384874 -24.17083539616558 0 0 0
338 113 2 0.5564 7.768780474043833 -7.544422178351382 -24.5928681554431 0 0 0
339 113 2 0.5564 8.02717618962095 -8.168885375263745 -23.23629644839132 0 0 0
340 114 1 -1.1128 12.114038411424445 -8.179434767619217 -23.67165661360517 0 0 0
341 114 2 0.5564 11.839788495022162 -7.2671595790943115 -23.776877922070653 0 0 0
342 114 2 0.5564 12.046173093553392 -8.553405653286472 -24.55146546432418 0 0 0
343 115 1 -1.1128 16.059843628943657 -8.25691457677288 -23.711166804510864 0 0 0
344 115 2 0.5564 16.648590898272072 -8.041340148007578 -24.43603567439068 0 0 0
345 115 2 0.5564 15.29156547278427 -7.701745275219542 -23.852797521098456 0 0 0
346 116 1 -1.1128 20.117080942559465 -8.2533876041776 -23.7259603141176 0 0 0
347 116 2 0.5564 20.662147642066238 -7.764781071137693 -24.344585005638653 0 0 0
348 116 2 0.5564 19.220771415374298 -7.981831324684707 -23.929454680243747 0 0 0
349 117 1 -1.1128 23.85644269353484 -8.332186521031039 -23.851492796451605 0 0 0
350 117 2 0.5564 24.319070681810945 -8.212595802240534 -24.682277945839086 0 0 0
351 117 2 0.5564 23.82448662465421 -7.455217676728427 -23.46622925770931 0 0 0
352 118 1 -1.1128 27.966767899200494 -8.332520523184114 -24.203314297671895 0 0 0
353 118 2 0.5564 28.479831641621832 -8.179607209024336 -23.40838431675201 0 0 0
354 118 2 0.5564 27.55340045917767 -7.48787226779155 -24.388301385576096 0 0 0
355 119 1 -1.1128 31.99050900569544 -8.113962585527624 -23.625923236986083 0 0 0
356 119 2 0.5564 32.71131324512913 -8.2095005024439 -24.25029837650215 0 0 0
357 119 2 0.5564 31.298177749175426 -7.676536912028475 -24.123778386511763 0 0 0
358 120 1 -1.1128 -31.845342001628634 -3.6795102342708055 -24.162413632748635 0 0 0
359 120 2 0.5564 -31.726922568097887 -3.9988133294965076 -23.266560446595044 0 0 0
360 120 2 0.5564 -32.42773543027348 -4.321676436232687 -24.57102592065632 0 0 0
361 121 1 -1.1128 -27.788680264771205 -4.221817507374534 -23.756788286826104 0 0 0
362 121 2 0.5564 -27.48493931479899 -3.7488906255058265 -24.53306926670125 0 0 0
363 121 2 0.5564 -28.726380420429805 -4.02929186711964 -23.710142446472645 0 0 0
364 122 1 -1.1128 -23.664601625849194 -3.905025918687408 -23.822520905468206 0 0 0
365 122 2 0.5564 -23.87990625162177 -3.822886804890377 -24.752804541842387 0 0 0
366 122 2 0.5564 -24.455492122529037 -4.272087276422215 -23.424674552689407 0 0 0
367 123 1 -1.1128 -19.703356162498267 -3.8114781492987593 -24.171676789288547 0 0 0