LAMMPS data file via write_data, version 29 Sep 2021, timestep = 0

3 atoms
2 atom types
2 bonds
1 bond types
1 angles
1 angle types

-35.699999999999996 35.699999999999996 xlo xhi
-35.699999999999996 35.699999999999996 ylo yhi
-35.699999999999996 35.699999999999996 zlo zhi

Masses

1 15.9994
2 1.008

Pair Coeffs # lj/cut/tip4p/cut

1 0.185199 3.1589
2 0 0

Bond Coeffs # harmonic

1 0 0.9572

Angle Coeffs # harmonic

1 0 104.52

Atoms # full

1 1 1 -1.1128 29.085348007523823 18.494939787540243 -11.63348114156017 0 0 0
2 1 2 0.5564 29.44805229365235 19.363244696599875 -11.451759525545603 0 0 0
3 1 2 0.5564 29.357321589708583 18.30463561648716 -12.532557462888558 0 0 0

Velocities

1 0 0 0
2 0 0 0
3 0 0 0

Bonds

1 1 1 2
2 1 1 3

Angles

1 1 2 1 3
