LAMMPS Description

     2438  atoms
     1626  bonds
     817  angles
     0  dihedrals
     0  impropers

     4  atom types
     2  bond types
     2  angle types

  -15.53 15.53 xlo xhi
  -15.53 15.53 ylo yhi
  -15.53 15.53 zlo zhi

Masses

1 15.999  # 65
2 1.008  # 66
3 12.011  # 83
4 1.008  # 85

Atoms  # full

1 1 1 -1.1794 9.20998 -7.373192 -9.639824
2 1 2 0.5897 9.601156 -8.214827 -9.266932
3 1 2 0.5897 9.943921 -6.727192 -9.846709
4 2 1 -1.1794 -5.420658 -9.480502 7.114362
5 2 2 0.5897 -5.529525 -9.844578 6.189151
6 2 2 0.5897 -6.31568 -9.230272 7.481931
7 3 1 -1.1794 -10.606959 3.417831 -1.612332
8 3 2 0.5897 -11.16168 3.474393 -0.781968
9 3 2 0.5897 -9.969602 4.187082 -1.640871
10 4 1 -1.1794 -2.598171 6.20625 5.770414
11 4 2 0.5897 -2.683983 6.765077 6.595499
12 4 2 0.5897 -1.6372 6.154544 5.500884
13 5 1 -1.1794 14.062937 -1.055808 -11.42744
14 5 2 0.5897 13.152136 -1.468223 -11.399613
15 5 2 0.5897 14.227028 -0.551789 -10.580195
16 6 1 -1.1794 9.798091 1.286824 -8.740106
17 6 2 0.5897 10.753865 1.260761 -8.446451
18 6 2 0.5897 9.373389 0.397685 -8.573235
19 7 1 -1.1794 3.768656 -13.868346 -14.31438
20 7 2 0.5897 3.455367 -13.003571 -13.921402
21 7 2 0.5897 2.979248 -14.440861 -14.533119
22 8 1 -1.1794 9.567925 -10.206936 -3.498764
23 8 2 0.5897 9.619548 -9.213666 -3.393093
24 8 2 0.5897 8.676764 -10.530279 -3.182429
25 9 1 -1.1794 -12.046808 -9.289006 -10.276049
26 9 2 0.5897 -11.932857 -8.295775 -10.306459
27 9 2 0.5897 -11.149348 -9.728456 -10.291347
28 10 1 -1.1794 4.934206 4.331429 -2.579025
29 10 2 0.5897 4.306008 3.713696 -3.052514
30 10 2 0.5897 5.725502 3.81614 -2.251745
31 11 1 -1.1794 -4.037435 9.100498 6.071225
32 11 2 0.5897 -3.596816 9.344873 6.935259
33 11 2 0.5897 -3.721497 9.71577 5.349831
34 12 1 -1.1794 3.401427 11.139314 13.935207
35 12 2 0.5897 3.952176 11.877867 14.324608
36 12 2 0.5897 2.62491 10.95013 14.53522
37 13 1 -1.1794 -4.603875 -14.542662 -10.218849
38 13 2 0.5897 -5.585418 -14.487634 -10.034557
39 13 2 0.5897 -4.10929 -13.968924 -9.566933
40 14 1 -1.1794 -6.046255 6.400662 -7.138613
41 14 2 0.5897 -7.009792 6.189803 -7.304603
42 14 2 0.5897 -5.472167 5.74174 -7.623412
43 15 1 -1.1794 14.454837 11.3169 14.175034
44 15 2 0.5897 14.235604 12.22581 14.530333
45 15 2 0.5897 14.53056 11.357202 13.17933
46 16 1 -1.1794 6.084357 9.944898 -11.885612
47 16 2 0.5897 6.836821 10.602096 -11.933632
48 16 2 0.5897 6.259968 9.289626 -11.151742
49 17 1 -1.1794 -9.832376 12.595777 -3.145215
50 17 2 0.5897 -9.22486 11.852732 -3.426687
51 17 2 0.5897 -9.392197 13.474148 -3.328221
52 18 1 -1.1794 -4.851466 -7.767118 -4.564843
53 18 2 0.5897 -4.021947 -8.325946 -4.559564
54 18 2 0.5897 -4.601987 -6.799868 -4.59605
55 19 1 -1.1794 -11.071715 13.954918 -8.720671
56 19 2 0.5897 -11.831915 14.52681 -9.029626
57 19 2 0.5897 -10.277085 14.530387 -8.530447
58 20 1 -1.1794 4.990646 4.24407 1.201688
59 20 2 0.5897 4.47808 3.410789 0.993515
60 20 2 0.5897 5.837268 4.256448 0.670779
61 21 1 -1.1794 4.148379 -7.404318 -4.989
62 21 2 0.5897 5.139837 -7.318761 -5.089542
63 21 2 0.5897 3.894072 -8.370754 -4.999724
64 22 1 -1.1794 3.8344 -11.151614 -0.27574
65 22 2 0.5897 4.456694 -10.368576 -0.279929
66 22 2 0.5897 3.215428 -11.081741 0.505783
67 23 1 -1.1794 10.574979 -12.657038 -13.716693
68 23 2 0.5897 10.68327 -13.30186 -12.959794
69 23 2 0.5897 10.627012 -13.149611 -14.584707
70 24 1 -1.1794 0.93844 -13.470161 3.51312
71 24 2 0.5897 0.046567 -13.031171 3.402351
72 24 2 0.5897 0.833678 -14.461433 3.441069
73 25 1 -1.1794 12.876981 -2.189628 10.979311
74 25 2 0.5897 12.05641 -1.98436 11.513114
75 25 2 0.5897 13.68556 -1.878174 11.477288
76 26 1 -1.1794 -14.513317 1.399223 13.535492
77 26 2 0.5897 -14.531738 1.471927 14.532885
78 26 2 0.5897 -14.49057 0.435586 13.27154
79 27 1 -1.1794 -9.173715 7.543883 -11.37741
80 27 2 0.5897 -9.60075 6.656258 -11.551141
81 27 2 0.5897 -8.458088 7.440557 -10.687493
82 28 1 -1.1794 4.031202 7.077357 -13.76467
83 28 2 0.5897 4.186115 7.742646 -13.034047
84 28 2 0.5897 3.574048 7.52517 -14.532302
85 29 1 -1.1794 2.001452 -14.513286 -0.312771
86 29 2 0.5897 2.911766 -14.136335 -0.484975
87 29 2 0.5897 1.838866 -14.555975 0.672383
88 30 1 -1.1794 8.434548 4.119298 2.324066
89 30 2 0.5897 7.855476 4.930201 2.410834
90 30 2 0.5897 7.860087 3.303315 2.269739
91 31 1 -1.1794 0.157587 -1.445859 -4.70336
92 31 2 0.5897 0.818307 -0.69499 -4.711248
93 31 2 0.5897 -0.43193 -1.380045 -5.507675
94 32 1 -1.1794 9.785145 0.434676 1.334075
95 32 2 0.5897 8.897889 -0.010083 1.210042
96 32 2 0.5897 9.658914 1.425175 1.376071
97 33 1 -1.1794 -4.551758 -10.133061 2.889945
98 33 2 0.5897 -4.372518 -9.587098 3.708612
99 33 2 0.5897 -4.11749 -11.028223 2.984177
100 34 1 -1.1794 -7.659342 -6.422507 1.703582
101 34 2 0.5897 -7.565555 -5.51087 1.302907
102 34 2 0.5897 -7.641171 -6.352378 2.700346
103 35 1 -1.1794 -0.522718 7.362281 8.18911
104 35 2 0.5897 0.306993 7.905301 8.319979
105 35 2 0.5897 -0.275435 6.443583 7.88312
106 36 1 -1.1794 -1.089144 12.142711 -2.537915
107 36 2 0.5897 -1.504134 11.426894 -3.099882
108 36 2 0.5897 -0.251156 12.466744 -2.975595
109 37 1 -1.1794 8.30191 -11.264735 -13.115044
110 37 2 0.5897 7.308237 -11.248489 -13.228033
111 37 2 0.5897 8.642893 -10.329582 -13.025572
112 38 1 -1.1794 -3.046806 2.016227 -11.959615
113 38 2 0.5897 -2.164375 1.630396 -12.229554
114 38 2 0.5897 -3.024984 3.009141 -12.071111
115 39 1 -1.1794 -7.015928 -9.399282 -8.729593
116 39 2 0.5897 -6.706994 -8.612857 -8.194323
117 39 2 0.5897 -6.383629 -9.556221 -9.487454
118 40 1 -1.1794 -14.380677 1.880278 9.4915
119 40 2 0.5897 -14.383958 2.808273 9.118362
120 40 2 0.5897 -14.555278 1.915435 10.474894
121 41 1 -1.1794 -12.690061 -13.671117 -6.727343
122 41 2 0.5897 -12.113476 -12.853825 -6.728242
123 41 2 0.5897 -13.207297 -13.715507 -7.581323
124 42 1 -1.1794 0.567967 -6.054983 -7.581003
125 42 2 0.5897 1.450738 -6.501797 -7.434412
126 42 2 0.5897 -0.091762 -6.391278 -6.909849
127 43 1 -1.1794 -1.204601 -2.224191 -12.049545
128 43 2 0.5897 -1.010205 -1.75208 -11.189465
129 43 2 0.5897 -0.345405 -2.476722 -12.493161
130 44 1 -1.1794 -1.801491 2.14803 9.601209
131 44 2 0.5897 -2.410036 1.404268 9.323885
132 44 2 0.5897 -1.01937 1.772008 10.096871
133 45 1 -1.1794 -7.020072 -13.730832 0.399022
134 45 2 0.5897 -7.93108 -13.79295 0.807218
135 45 2 0.5897 -6.554691 -12.916456 0.743981
136 46 1 -1.1794 6.06298 -12.190656 -1.565931
137 46 2 0.5897 5.476411 -11.936322 -2.335131
138 46 2 0.5897 6.777269 -11.501542 -1.44889
139 47 1 -1.1794 -4.724597 0.287581 12.01548
140 47 2 0.5897 -4.209375 0.458045 11.175298
141 47 2 0.5897 -5.295973 -0.523863 11.897692
142 48 1 -1.1794 -12.049915 8.500811 1.587076
143 48 2 0.5897 -11.870084 8.704397 0.62446
144 48 2 0.5897 -12.543391 7.634683 1.658412
145 49 1 -1.1794 -6.752247 -5.604186 -9.873395
146 49 2 0.5897 -7.482337 -4.920617 -9.862481
147 49 2 0.5897 -7.15221 -6.51886 -9.920148
148 50 1 -1.1794 -6.023022 -11.692225 -3.242427
149 50 2 0.5897 -5.908711 -10.700574 -3.305516
150 50 2 0.5897 -5.129462 -12.124364 -3.125842
151 51 1 -1.1794 -1.216903 12.376502 0.742279
152 51 2 0.5897 -1.971857 12.296094 1.39343
153 51 2 0.5897 -1.454814 13.042497 0.036139
154 52 1 -1.1794 -11.404878 -10.353569 -7.625754
155 52 2 0.5897 -11.653932 -9.404682 -7.430811
156 52 2 0.5897 -10.412673 -10.425173 -7.721608
157 53 1 -1.1794 -11.616134 5.489019 7.992261
158 53 2 0.5897 -10.650419 5.239651 7.917248
159 53 2 0.5897 -11.825639 6.213347 7.336333
160 54 1 -1.1794 -6.552469 3.214065 -7.575892
161 54 2 0.5897 -6.499058 2.21608 -7.61578
162 54 2 0.5897 -7.51042 3.495455 -7.5319
163 55 1 -1.1794 1.55175 13.884508 -0.64784
164 55 2 0.5897 1.196547 12.950349 -0.687777
165 55 2 0.5897 0.791689 14.526835 -0.555603
166 56 1 -1.1794 2.706095 -9.648845 -2.874339
167 56 2 0.5897 2.076914 -8.871318 -2.87536
168 56 2 0.5897 2.191634 -10.494204 -2.734755
169 57 1 -1.1794 -3.024812 -14.048861 -3.323129
170 57 2 0.5897 -3.874481 -14.539595 -3.517193
171 57 2 0.5897 -2.514587 -14.532963 -2.613128
172 58 1 -1.1794 8.005494 9.34255 3.401017
173 58 2 0.5897 7.218495 8.860876 3.014958
174 58 2 0.5897 8.398898 9.947099 2.709253
175 59 1 -1.1794 1.345216 13.55317 -12.871925
176 59 2 0.5897 0.449493 13.989047 -12.781871
177 59 2 0.5897 1.355422 12.700711 -12.350393
178 60 1 -1.1794 4.100105 -7.17655 -7.729293
179 60 2 0.5897 4.207778 -6.216923 -7.46864
180 60 2 0.5897 4.718865 -7.388514 -8.484934
181 61 1 -1.1794 -7.916789 -0.102673 11.179241
182 61 2 0.5897 -8.745424 -0.243356 10.637032
183 61 2 0.5897 -8.039207 -0.504439 12.086094
184 62 1 -1.1794 -2.838893 -3.705372 -3.170256
185 62 2 0.5897 -3.372244 -3.582256 -2.33312
186 62 2 0.5897 -1.864905 -3.629756 -2.959508
187 63 1 -1.1794 -14.289621 14.132703 5.984691
188 63 2 0.5897 -13.391607 14.254072 6.408079
189 63 2 0.5897 -14.434501 13.165052 5.781105
190 64 1 -1.1794 -0.898294 6.365704 0.699683
191 64 2 0.5897 -0.116079 6.835497 0.289985
192 64 2 0.5897 -0.780846 5.377706 0.605608
193 65 1 -1.1794 -9.457521 -6.187036 -11.380482
194 65 2 0.5897 -10.183296 -6.209616 -10.692615
195 65 2 0.5897 -9.412421 -5.275694 -11.788167
196 66 1 -1.1794 5.029456 3.09568 -11.40913
197 66 2 0.5897 4.806885 3.978492 -11.823282
198 66 2 0.5897 5.002492 3.177918 -10.413492
199 67 1 -1.1794 11.816386 -9.211779 7.764859
200 67 2 0.5897 10.877348 -9.154175 7.42529
201 67 2 0.5897 11.805386 -9.353224 8.75413
202 68 1 -1.1794 6.45437 9.184562 14.220312
203 68 2 0.5897 5.640522 9.664977 14.547835
204 68 2 0.5897 6.308996 8.198058 14.287106
205 69 1 -1.1794 -11.127915 14.268875 -5.884717
206 69 2 0.5897 -11.941181 13.687998 -5.924683
207 69 2 0.5897 -10.308268 13.697669 -5.91094
208 70 1 -1.1794 0.71856 -9.550268 8.376023
209 70 2 0.5897 0.897779 -10.435533 7.946367
210 70 2 0.5897 -0.266627 -9.383967 8.399201
211 71 1 -1.1794 2.789763 -14.092455 14.548685
212 71 2 0.5897 1.950011 -14.537966 14.237631
213 71 2 0.5897 2.701753 -13.102715 14.441661
214 72 1 -1.1794 7.920444 -8.209439 2.368141
215 72 2 0.5897 8.126115 -8.401077 3.328033
216 72 2 0.5897 8.595088 -7.568379 2.003885
217 73 1 -1.1794 -3.854085 5.895638 -4.248822
218 73 2 0.5897 -4.07751 5.446108 -3.383708
219 73 2 0.5897 -3.585475 6.842139 -4.073409
220 74 1 -1.1794 -6.53576 -3.716326 -5.324161
221 74 2 0.5897 -7.468778 -3.966078 -5.064314
222 74 2 0.5897 -5.898158 -4.405361 -4.981409
223 75 1 -1.1794 10.075285 7.664097 1.669997
224 75 2 0.5897 9.270788 7.26736 2.112493
225 75 2 0.5897 10.520101 6.971365 1.103388
226 76 1 -1.1794 10.868631 -9.137332 -14.12308
227 76 2 0.5897 11.386682 -8.793396 -13.339659
228 76 2 0.5897 11.353346 -9.910767 -14.530062
229 77 1 -1.1794 -1.132787 -8.803429 -4.427226
230 77 2 0.5897 -0.141514 -8.905687 -4.512894
231 77 2 0.5897 -1.346297 -7.883593 -4.099963
232 78 1 -1.1794 10.232648 -13.819848 12.244247
233 78 2 0.5897 9.625158 -14.530298 12.600102
234 78 2 0.5897 9.690229 -13.033928 11.949463
235 79 1 -1.1794 3.53982 11.912092 9.129978
236 79 2 0.5897 4.170385 11.506323 8.468044
237 79 2 0.5897 4.029834 12.113792 9.97732
238 80 1 -1.1794 -5.944076 0.775778 -1.559109
239 80 2 0.5897 -5.161429 0.243432 -1.882356
240 80 2 0.5897 -5.621825 1.528648 -0.986285
241 81 1 -1.1794 13.954184 7.303603 -9.774972
242 81 2 0.5897 14.531232 8.120492 -9.786214
243 81 2 0.5897 14.531055 6.487515 -9.777382
244 82 1 -1.1794 -9.107704 -11.478325 -14.366682
245 82 2 0.5897 -9.714065 -12.255032 -14.538352
246 82 2 0.5897 -9.606333 -10.625705 -14.518979
247 83 1 -1.1794 7.249087 10.683842 -8.997772
248 83 2 0.5897 8.11271 10.724516 -9.500682
249 83 2 0.5897 6.760374 11.549167 -9.103406
250 84 1 -1.1794 4.770771 -13.891244 -8.114933
251 84 2 0.5897 3.962847 -14.321111 -7.711335
252 84 2 0.5897 5.536376 -14.533237 -8.093037
253 85 1 -1.1794 -5.507709 -3.640456 -8.009117
254 85 2 0.5897 -4.785306 -2.948934 -7.9904
255 85 2 0.5897 -6.400064 -3.19059 -8.019561
256 86 1 -1.1794 4.121974 -13.571916 4.990903
257 86 2 0.5897 4.280754 -14.535717 5.206069
258 86 2 0.5897 4.966525 -13.163396 4.646479
259 87 1 -1.1794 -13.236594 -13.540213 11.478644
260 87 2 0.5897 -13.557749 -14.485156 11.412602
261 87 2 0.5897 -13.676256 -13.091939 12.256162
262 88 1 -1.1794 -8.473799 6.293728 3.557204
263 88 2 0.5897 -9.23045 6.924974 3.728742
264 88 2 0.5897 -7.925665 6.629947 2.792161
265 89 1 -1.1794 -11.915868 1.495954 -12.070599
266 89 2 0.5897 -11.917769 0.496093 -12.096896
267 89 2 0.5897 -10.988835 1.832246 -12.232781
268 90 1 -1.1794 -3.961384 -7.159887 11.556102
269 90 2 0.5897 -3.473697 -8.024782 11.67667
270 90 2 0.5897 -4.587533 -7.23515 10.780823
271 91 1 -1.1794 -9.540722 9.424889 2.289223
272 91 2 0.5897 -8.772808 9.568754 2.913745
273 91 2 0.5897 -9.308806 8.705526 1.635375
274 92 1 -1.1794 7.496149 -6.507307 -3.922451
275 92 2 0.5897 7.795345 -7.375859 -4.318073
276 92 2 0.5897 7.656792 -6.516996 -2.936102
277 93 1 -1.1794 -14.533268 -14.146361 -4.086242
278 93 2 0.5897 -14.465584 -13.179303 -3.839998
279 93 2 0.5897 -13.618236 -14.514442 -4.247546
280 94 1 -1.1794 -2.03239 9.296622 3.221146
281 94 2 0.5897 -2.583275 10.041762 2.844702
282 94 2 0.5897 -1.865532 8.613386 2.511125
283 95 1 -1.1794 3.818007 12.919349 -14.534545
284 95 2 0.5897 3.743655 12.403709 -13.680727
285 95 2 0.5897 3.635242 13.885834 -14.357661
286 96 1 -1.1794 4.889458 10.212241 5.326238
287 96 2 0.5897 4.790447 11.172919 5.586457
288 96 2 0.5897 5.843064 10.026627 5.091784
289 97 1 -1.1794 -9.319786 5.599743 11.087682
290 97 2 0.5897 -9.063117 5.974178 11.978938
291 97 2 0.5897 -10.315054 5.530731 11.028835
292 98 1 -1.1794 -3.63754 -9.500186 -9.352994
293 98 2 0.5897 -3.546103 -9.502959 -10.34901
294 98 2 0.5897 -3.81265 -10.430079 -9.031403
295 99 1 -1.1794 -6.422624 2.523527 4.845542
296 99 2 0.5897 -6.35758 3.454044 5.206547
297 99 2 0.5897 -7.381233 2.2422 4.818915
298 100 1 -1.1794 10.650957 3.90114 0.067217
299 100 2 0.5897 10.77192 4.733388 -0.474216
300 100 2 0.5897 10.714971 3.102333 -0.529938
301 101 1 -1.1794 12.51563 8.263653 2.785586
302 101 2 0.5897 13.424758 8.630716 2.587674
303 101 2 0.5897 12.574352 7.273098 2.904487
304 102 1 -1.1794 -2.225613 -5.107507 -11.457554
305 102 2 0.5897 -1.244873 -4.923365 -11.525797
306 102 2 0.5897 -2.721043 -4.517022 -12.093685
307 103 1 -1.1794 3.544778 -14.116183 -3.437897
308 103 2 0.5897 3.181463 -13.257209 -3.076533
309 103 2 0.5897 4.284137 -14.439929 -2.848556
310 104 1 -1.1794 9.562071 8.11658 7.624295
311 104 2 0.5897 9.572878 8.896406 6.998058
312 104 2 0.5897 10.47 7.997522 8.024639
313 105 1 -1.1794 2.411637 14.539857 10.29191
314 105 2 0.5897 1.773783 13.868724 9.913571
315 105 2 0.5897 2.419905 14.467395 11.288638
316 106 1 -1.1794 -10.99324 -11.537067 3.495312
317 106 2 0.5897 -10.390308 -12.314199 3.676854
318 106 2 0.5897 -10.445743 -10.707889 3.388087
319 107 1 -1.1794 13.984466 1.840263 9.562021
320 107 2 0.5897 14.533954 2.533501 10.028821
321 107 2 0.5897 14.533234 1.016398 9.424597
322 108 1 -1.1794 -13.4666 -14.532465 -12.069949
323 108 2 0.5897 -13.074847 -14.379754 -11.162411
324 108 2 0.5897 -13.775295 -13.661653 -12.450972
325 109 1 -1.1794 6.008818 -5.930778 -10.939335
326 109 2 0.5897 5.716495 -5.153854 -10.381344
327 109 2 0.5897 6.982954 -6.099134 -10.792704
328 110 1 -1.1794 -0.034775 7.361316 -9.243472
329 110 2 0.5897 -0.99739 7.231272 -9.481963
330 110 2 0.5897 0.116949 7.072308 -8.298888
331 111 1 -1.1794 -7.330667 7.346023 10.342339
332 111 2 0.5897 -6.749029 6.536754 10.257491
333 111 2 0.5897 -6.7588 8.163965 10.394527
334 112 1 -1.1794 2.510792 9.922191 -13.706385
335 112 2 0.5897 2.69283 10.031484 -12.728972
336 112 2 0.5897 1.659092 10.389247 -13.941441
337 113 1 -1.1794 -1.987333 -2.162025 10.201365
338 113 2 0.5897 -1.208748 -2.296894 9.588149
339 113 2 0.5897 -1.787403 -1.415768 10.835332
340 114 1 -1.1794 -2.177722 5.638032 -7.578416
341 114 2 0.5897 -2.816727 5.513811 -8.337796
342 114 2 0.5897 -2.34132 6.524159 -7.146212
343 115 1 -1.1794 11.922707 -0.931411 5.432425
344 115 2 0.5897 12.417856 -0.819377 4.570628
345 115 2 0.5897 12.185207 -0.203686 6.065114
346 116 1 -1.1794 -11.656659 2.885629 14.537499
347 116 2 0.5897 -12.535468 3.363189 14.530481
348 116 2 0.5897 -11.813322 1.898684 14.55097
349 117 1 -1.1794 -3.526544 5.238281 9.21423
350 117 2 0.5897 -2.822583 5.948805 9.217696
351 117 2 0.5897 -4.422135 5.656604 9.066899
352 118 1 -1.1794 -14.062714 -2.576524 14.391294
353 118 2 0.5897 -13.468084 -1.784546 14.531307
354 118 2 0.5897 -13.504643 -3.382841 14.198435
355 119 1 -1.1794 -1.626614 -2.95231 -0.305283
356 119 2 0.5897 -0.663366 -2.691857 -0.374095
357 119 2 0.5897 -1.696841 -3.941729 -0.183212
358 120 1 -1.1794 2.027403 10.111173 0.73686
359 120 2 0.5897 1.658367 9.182457 0.695421
360 120 2 0.5897 1.298437 10.749241 0.982342
361 121 1 -1.1794 -12.429817 8.466781 4.763412
362 121 2 0.5897 -11.717585 7.972074 4.265007
363 121 2 0.5897 -13.065806 8.880883 4.113164
364 122 1 -1.1794 -12.464156 -10.82131 13.415917
365 122 2 0.5897 -12.570273 -10.37787 12.525683
366 122 2 0.5897 -12.405196 -10.125165 14.130543
367 123 1 -1.1794 5.678249 1.81384 7.046006
368 123 2 0.5897 6.549846 1.688804 7.520456
369 123 2 0.5897 5.831434 1.803641 6.058476
370 124 1 -1.1794 -4.019208 -10.393846 -0.48824
371 124 2 0.5897 -4.715786 -11.089991 -0.313368
372 124 2 0.5897 -4.310331 -9.81409 -1.248448
373 125 1 -1.1794 -13.870299 -2.823548 3.809609
374 125 2 0.5897 -14.32046 -3.431779 4.463694
375 125 2 0.5897 -14.395639 -2.799945 2.959758
376 126 1 -1.1794 -5.693349 7.850641 -9.446747
377 126 2 0.5897 -5.365758 7.094872 -10.014123
378 126 2 0.5897 -4.930201 8.232545 -8.926611
379 127 1 -1.1794 5.517693 -9.128018 -2.491713
380 127 2 0.5897 5.042804 -8.247819 -2.503864
381 127 2 0.5897 6.505206 -8.974386 -2.490902
382 128 1 -1.1794 11.157416 -10.339958 14.530079
383 128 2 0.5897 10.291455 -9.839682 14.514183
384 128 2 0.5897 10.976202 -11.321998 14.490793
385 129 1 -1.1794 -8.099704 1.582391 -3.062193
386 129 2 0.5897 -8.65768 2.390434 -3.252317
387 129 2 0.5897 -8.694822 0.793364 -2.913677
388 130 1 -1.1794 -10.33415 -14.345287 -9.053699
389 130 2 0.5897 -10.410999 -14.54075 -8.07579
390 130 2 0.5897 -11.095901 -13.764548 -9.338766
391 131 1 -1.1794 -7.470278 14.357147 -10.6611
392 131 2 0.5897 -7.805505 14.527235 -9.734217
393 131 2 0.5897 -8.1082 13.756383 -11.141645
394 132 1 -1.1794 -7.524152 -2.956185 13.813617
395 132 2 0.5897 -7.217129 -3.010568 12.86325
396 132 2 0.5897 -7.992104 -3.803569 14.062104
397 133 1 -1.1794 10.734687 7.310998 -5.764952
398 133 2 0.5897 10.245323 6.489984 -6.059702
399 133 2 0.5897 11.65904 7.063154 -5.476975
400 134 1 -1.1794 -0.699144 -4.254459 7.725721
401 134 2 0.5897 -1.498493 -4.831543 7.557099
402 134 2 0.5897 -0.205474 -4.10959 6.868932
403 135 1 -1.1794 -11.096402 5.371507 2.244553
404 135 2 0.5897 -10.461244 4.670262 2.568972
405 135 2 0.5897 -11.97411 4.949052 2.021068
406 136 1 -1.1794 -14.170324 6.012033 -14.536189
407 136 2 0.5897 -14.533305 6.919635 -14.324242
408 136 2 0.5897 -13.17156 6.038174 -14.512299
409 137 1 -1.1794 0.470148 13.060582 6.564153
410 137 2 0.5897 -0.205743 12.344667 6.740381
411 137 2 0.5897 0.669091 13.54804 7.413618
412 138 1 -1.1794 -4.299064 -2.169153 -4.922614
413 138 2 0.5897 -4.795048 -1.995718 -4.071534
414 138 2 0.5897 -4.624654 -1.544726 -5.631746
415 139 1 -1.1794 -9.285217 -12.296645 9.346156
416 139 2 0.5897 -9.425661 -13.058091 8.712994
417 139 2 0.5897 -8.307673 -12.183721 9.520626
418 140 1 -1.1794 13.563289 -7.10974 8.063287
419 140 2 0.5897 13.069753 -6.916843 8.911597
420 140 2 0.5897 14.544735 -6.998591 8.215584
421 141 1 -1.1794 0.517974 7.491042 3.302089
422 141 2 0.5897 1.475708 7.203223 3.320082
423 141 2 0.5897 -0.072756 6.684926 3.30225
424 142 1 -1.1794 -14.532582 -9.3757 -12.749308
425 142 2 0.5897 -13.630417 -8.963183 -12.621458
426 142 2 0.5897 -14.428105 -10.34473 -12.97033
427 143 1 -1.1794 9.066521 4.701799 -3.66176
428 143 2 0.5897 9.661335 4.315101 -2.956723
429 143 2 0.5897 8.111551 4.523179 -3.427425
430 144 1 -1.1794 -0.810246 4.989956 10.827518
431 144 2 0.5897 -0.389052 4.455267 10.094632
432 144 2 0.5897 -0.307242 4.843764 11.678635
433 145 1 -1.1794 -2.002984 -4.093075 -5.762229
434 145 2 0.5897 -2.161676 -5.075951 -5.666367
435 145 2 0.5897 -1.132553 -3.939546 -6.228665
436 146 1 -1.1794 -12.799104 1.490158 -7.285209
437 146 2 0.5897 -12.513947 0.531733 -7.308129
438 146 2 0.5897 -12.309582 2.000905 -7.991106
439 147 1 -1.1794 8.594537 -10.519905 12.151432
440 147 2 0.5897 9.467873 -10.151935 11.831587
441 147 2 0.5897 7.947017 -9.771067 12.288342
442 148 1 -1.1794 1.492725 -6.181145 14.53419
443 148 2 0.5897 1.438052 -5.193044 14.388983
444 148 2 0.5897 0.574374 -6.574197 14.50373
445 149 1 -1.1794 6.202439 -2.519993 3.786147
446 149 2 0.5897 5.729576 -3.292633 4.210229
447 149 2 0.5897 6.610211 -2.812055 2.921735
448 150 1 -1.1794 14.524257 -9.169925 4.028644
449 150 2 0.5897 13.578611 -9.4542 3.869399
450 150 2 0.5897 14.533867 -8.262987 4.448354
451 151 1 -1.1794 -10.363056 -4.026602 11.119452
452 151 2 0.5897 -10.410051 -3.234202 10.510919
453 151 2 0.5897 -9.623549 -3.897304 11.779146
454 152 1 -1.1794 0.967617 6.660191 -14.388564
455 152 2 0.5897 0.668633 7.586741 -14.159364
456 152 2 0.5897 0.168387 6.077503 -14.531715
457 153 1 -1.1794 -7.936762 13.6459 0.07357
458 153 2 0.5897 -7.579011 14.560865 -0.114237
459 153 2 0.5897 -7.18059 12.993679 0.113525
460 154 1 -1.1794 -11.832428 -2.155675 7.73926
461 154 2 0.5897 -12.203272 -1.831846 8.609908
462 154 2 0.5897 -12.52266 -2.053186 7.023815
463 155 1 -1.1794 -6.578338 -9.232487 0.488158
464 155 2 0.5897 -5.77687 -8.755872 0.849966
465 155 2 0.5897 -7.191375 -8.572843 0.054751
466 156 1 -1.1794 12.420492 10.752603 -11.606094
467 156 2 0.5897 12.249273 11.72039 -11.420379
468 156 2 0.5897 13.354279 10.637636 -11.943153
469 157 1 -1.1794 -7.248136 -12.658039 14.532772
470 157 2 0.5897 -6.434424 -12.498637 13.973413
471 157 2 0.5897 -7.691098 -13.505888 14.243425
472 158 1 -1.1794 0.922182 -9.615638 -12.647552
473 158 2 0.5897 1.490245 -9.6686 -11.826019
474 158 2 0.5897 0.232534 -8.9018 -12.530909
475 159 1 -1.1794 -10.794855 7.698804 9.407994
476 159 2 0.5897 -10.945327 8.666277 9.612377
477 159 2 0.5897 -9.827592 7.54653 9.207996
478 160 1 -1.1794 9.937163 8.307282 -14.42322
479 160 2 0.5897 9.394835 7.473829 -14.531186
480 160 2 0.5897 9.336364 9.066589 -14.175677
481 161 1 -1.1794 13.80502 10.82324 6.034792
482 161 2 0.5897 14.538289 10.805493 5.354777
483 161 2 0.5897 13.110604 10.145883 5.79446
484 162 1 -1.1794 6.416502 11.384135 12.547344
485 162 2 0.5897 5.524873 11.107182 12.188579
486 162 2 0.5897 7.13307 11.114176 11.905132
487 163 1 -1.1794 3.386933 13.775927 7.072534
488 163 2 0.5897 3.547085 14.530621 7.709091
489 163 2 0.5897 4.153457 13.708973 6.43477
490 164 1 -1.1794 6.021675 -1.961499 -14.451749
491 164 2 0.5897 5.039536 -1.789191 -14.530043
492 164 2 0.5897 6.509187 -1.091308 -14.389425
493 165 1 -1.1794 0.533928 -11.536076 0.014888
494 165 2 0.5897 0.585519 -12.113566 0.82991
495 165 2 0.5897 0.956038 -12.010001 -0.757125
496 166 1 -1.1794 11.247971 1.947794 4.121751
497 166 2 0.5897 10.740721 1.869776 4.980254
498 166 2 0.5897 12.228914 1.910313 4.309188
499 167 1 -1.1794 9.268896 -8.390503 -0.793125
500 167 2 0.5897 8.721357 -9.224667 -0.723913
501 167 2 0.5897 10.237579 -8.618647 -0.701543
502 168 1 -1.1794 -2.770695 13.208693 -8.395168
503 168 2 0.5897 -2.482093 13.376536 -7.452323
504 168 2 0.5897 -2.06486 12.686154 -8.872175
505 169 1 -1.1794 6.558791 -13.069039 -11.308057
506 169 2 0.5897 6.496147 -13.80518 -11.982289
507 169 2 0.5897 5.655336 -12.664373 -11.170941
508 170 1 -1.1794 -3.578754 3.205952 12.183584
509 170 2 0.5897 -3.785374 3.17484 11.205443
510 170 2 0.5897 -2.728959 3.711352 12.329201
511 171 1 -1.1794 3.254758 11.231179 -7.471901
512 171 2 0.5897 3.363141 12.225441 -7.461232
513 171 2 0.5897 3.643135 10.844208 -6.636316
514 172 1 -1.1794 -7.533997 2.212222 -13.968343
515 172 2 0.5897 -7.25104 1.437382 -14.534007
516 172 2 0.5897 -7.589839 3.03485 -14.5331
517 173 1 -1.1794 -2.139428 5.609702 -12.188869
518 173 2 0.5897 -1.292006 6.140803 -12.203901
519 173 2 0.5897 -2.744001 5.966096 -11.47735
520 174 1 -1.1794 1.083066 5.38548 -2.882089
521 174 2 0.5897 0.717344 5.332042 -1.952676
522 174 2 0.5897 2.07927 5.311025 -2.853456
523 175 1 -1.1794 -1.71391 7.679396 14.531167
524 175 2 0.5897 -1.372482 7.267325 13.686157
525 175 2 0.5897 -2.296568 8.460592 14.309748
526 176 1 -1.1794 -7.250746 -10.293457 -5.770302
527 176 2 0.5897 -6.805783 -9.42072 -5.568422
528 176 2 0.5897 -8.080929 -10.129601 -6.302028
529 177 1 -1.1794 -10.511078 5.662166 14.530512
530 177 2 0.5897 -9.946557 6.487836 14.531842
531 177 2 0.5897 -11.477061 5.918412 14.530114
532 178 1 -1.1794 -4.147978 -6.4469 3.140042
533 178 2 0.5897 -3.372117 -7.065366 3.266358
534 178 2 0.5897 -4.995901 -6.975424 3.118293
535 179 1 -1.1794 11.413011 -9.872251 -10.715841
536 179 2 0.5897 12.083175 -10.597385 -10.556218
537 179 2 0.5897 11.859824 -8.981763 -10.637262
538 180 1 -1.1794 14.091307 -13.340459 0.014338
539 180 2 0.5897 14.520637 -13.901914 0.722055
540 180 2 0.5897 13.955557 -13.888926 -0.810004
541 181 1 -1.1794 6.359123 10.489503 -6.391424
542 181 2 0.5897 6.692559 11.136745 -5.705628
543 181 2 0.5897 6.527543 9.555453 -6.078421
544 182 1 -1.1794 11.4754 14.09864 -9.29387
545 182 2 0.5897 11.941458 13.226981 -9.140838
546 182 2 0.5897 11.277736 14.530236 -8.414417
547 183 1 -1.1794 3.783091 2.310447 -14.529921
548 183 2 0.5897 3.829101 1.888511 -13.624233
549 183 2 0.5897 4.316022 3.155885 -14.531625
550 184 1 -1.1794 12.75601 -6.283156 -9.08998
551 184 2 0.5897 13.180107 -6.684215 -9.902207
552 184 2 0.5897 13.437646 -5.756526 -8.583209
553 185 1 -1.1794 14.092331 1.943883 6.477244
554 185 2 0.5897 14.533095 2.674148 6.999601
555 185 2 0.5897 14.541913 1.073641 6.675585
556 186 1 -1.1794 -1.081928 -5.424975 10.210857
557 186 2 0.5897 -1.950071 -4.937473 10.306181
558 186 2 0.5897 -1.254452 -6.408432 10.168038
559 187 1 -1.1794 14.05876 -10.214151 6.528651
560 187 2 0.5897 14.53126 -9.434841 6.940764
561 187 2 0.5897 14.533424 -11.059147 6.772496
562 188 1 -1.1794 13.310994 1.241749 12.158705
563 188 2 0.5897 14.002464 0.633741 12.549364
564 188 2 0.5897 12.630646 0.700333 11.665978
565 189 1 -1.1794 11.182653 11.967493 -6.816984
566 189 2 0.5897 11.747829 11.620591 -6.068217
567 189 2 0.5897 10.459538 12.549803 -6.447111
568 190 1 -1.1794 -13.641222 -4.76581 11.172854
569 190 2 0.5897 -14.536788 -4.379099 10.951871
570 190 2 0.5897 -12.986284 -4.519946 10.459137
571 191 1 -1.1794 3.426044 -9.239215 10.642043
572 191 2 0.5897 3.191527 -9.477626 9.699398
573 191 2 0.5897 4.419259 -9.252042 10.752239
574 192 1 -1.1794 -11.053647 11.098114 -6.406079
575 192 2 0.5897 -12.009359 10.948868 -6.151605
576 192 2 0.5897 -10.459891 10.814992 -5.653696
577 193 1 -1.1794 -4.12786 -9.807856 14.588355
578 193 2 0.5897 -3.391683 -9.36766 14.073876
579 193 2 0.5897 -4.405362 -10.647047 14.121949
580 194 1 -1.1794 -3.902309 9.544769 -3.445882
581 194 2 0.5897 -3.817035 10.311045 -4.083037
582 194 2 0.5897 -3.689299 9.855276 -2.52014
583 195 1 -1.1794 -10.696689 10.675902 4.534574
584 195 2 0.5897 -9.956833 11.338801 4.651174
585 195 2 0.5897 -11.574898 11.152906 4.53286
586 196 1 -1.1794 7.752378 3.346779 12.587579
587 196 2 0.5897 7.891499 2.84636 13.442356
588 196 2 0.5897 6.809143 3.226224 12.280075
589 197 1 -1.1794 -6.956997 14.52934 8.607929
590 197 2 0.5897 -6.001757 14.538364 8.311528
591 197 2 0.5897 -7.395509 13.687558 8.295047
592 198 1 -1.1794 -12.050171 -4.540563 1.360187
593 198 2 0.5897 -11.44515 -5.067335 0.762793
594 198 2 0.5897 -12.321449 -3.696171 0.89954
595 199 1 -1.1794 13.994376 10.680027 -8.33391
596 199 2 0.5897 14.371347 11.552549 -8.022435
597 199 2 0.5897 13.012079 10.77763 -8.48996
598 200 1 -1.1794 -1.43404 7.040136 -2.114065
599 200 2 0.5897 -2.219289 6.576695 -1.702939
600 200 2 0.5897 -1.703904 7.956205 -2.408643
601 201 1 -1.1794 -11.452805 10.853212 -14.531141
602 201 2 0.5897 -10.463866 11.002942 -14.531164
603 201 2 0.5897 -11.923741 11.73469 -14.5307
604 202 1 -1.1794 -7.38542 10.671487 9.455918
605 202 2 0.5897 -6.516811 11.167362 9.462583
606 202 2 0.5897 -8.142171 11.323649 9.484161
607 203 1 -1.1794 6.650804 13.203945 5.400197
608 203 2 0.5897 7.163538 12.437092 5.013598
609 203 2 0.5897 6.468445 13.877776 4.685018
610 204 1 -1.1794 2.417142 8.92432 -9.604764
611 204 2 0.5897 3.075624 8.702537 -10.324231
612 204 2 0.5897 2.52242 8.28188 -8.846495
613 205 1 -1.1794 3.229218 4.913892 9.866045
614 205 2 0.5897 2.259257 5.101793 9.710203
615 205 2 0.5897 3.604048 4.421678 9.08118
616 206 1 -1.1794 0.847859 -6.225948 -4.11443
617 206 2 0.5897 0.672353 -5.318197 -4.49601
618 206 2 0.5897 1.503175 -6.710164 -4.693119
619 207 1 -1.1794 -1.234677 3.46632 5.916395
620 207 2 0.5897 -1.849167 3.678014 6.676662
621 207 2 0.5897 -1.071647 2.480861 5.883582
622 208 1 -1.1794 14.119056 3.748606 14.33673
623 208 2 0.5897 14.529981 3.363695 13.510048
624 208 2 0.5897 14.530092 4.638755 14.530299
625 209 1 -1.1794 6.747015 -5.019083 -7.308803
626 209 2 0.5897 6.617238 -5.398297 -6.392412
627 209 2 0.5897 6.875482 -5.763671 -7.962922
628 210 1 -1.1794 -12.904924 -5.165016 -6.506277
629 210 2 0.5897 -12.831322 -6.161125 -6.45368
630 210 2 0.5897 -13.605995 -4.917025 -7.173948
631 211 1 -1.1794 -6.269379 14.499059 -3.539938
632 211 2 0.5897 -6.923345 14.550045 -2.784857
633 211 2 0.5897 -6.760644 14.531907 -4.40963
634 212 1 -1.1794 6.866215 3.322939 -13.522934
635 212 2 0.5897 6.726662 4.28247 -13.768377
636 212 2 0.5897 7.033262 2.787786 -14.350274
637 213 1 -1.1794 6.292389 2.997585 -4.814154
638 213 2 0.5897 5.726737 2.172905 -4.833098
639 213 2 0.5897 7.111651 2.853064 -5.367967
640 214 1 -1.1794 0.905414 12.131721 12.743976
641 214 2 0.5897 0.737601 13.090851 12.972726
642 214 2 0.5897 0.183094 11.802137 12.137006
643 215 1 -1.1794 11.763438 -2.480371 1.073362
644 215 2 0.5897 12.005541 -1.527852 1.259138
645 215 2 0.5897 12.58909 -2.996851 0.849015
646 216 1 -1.1794 12.055794 -4.236454 -13.732907
647 216 2 0.5897 12.021723 -3.303069 -13.375069