LAMMPS data file via write_data, version 29 Sep 2021, timestep = 36

19000 atoms
5 atom types

-77.79852555696145 77.77764589847341 xlo xhi
-23.81101577952299 23.81101577952299 ylo yhi
-23.81101577952299 23.81101577952299 zlo zhi

Masses

1 1
2 1
3 1
4 1
5 1

PairIJ Coeffs # lj/cut

1 1 1 1 2.5
1 2 1 1 2.5
1 3 1 1 2.5
1 4 0.8 1 2.5
1 5 0.1 2 2.5
2 2 1 1 2.5
2 3 1 1 2.5
2 4 0.8 1 2.5
2 5 0.1 2 2.5
3 3 1 1 2.5
3 4 0.8 1 2.5
3 5 0.1 2 2.5
4 4 1 1 2.5
4 5 1.41421 1.73205 2.5
5 5 2 3 2.5

Atoms # atomic

1 1 -77.78265154644177 -23.81101577952299 -23.81101577952299 0 0 0
2 1 -77.78265154644177 -23.01731525353889 -23.01731525353889 0 0 0
13923 4 -63.12669483898372 -23.275528281141707 -23.31613839178151 0 0 0
10629 4 -52.34487914484137 -22.861788232850902 -23.00241698328344 0 0 0
10362 4 -37.6582305983754 -22.738532083598496 -23.152045368269274 0 0 0
1801 2 0 -23.81101577952299 -23.81101577952299 0 0 0
1802 2 0 -23.01731525353889 -23.01731525353889 0 0 0
15629 4 22.219720712686552 -22.84045193494341 -22.998487122457128 0 0 0
18957 5 23.94243418669002 -23.686581629663674 -23.172760769488303 0 0 0
15362 4 36.94961884412997 -22.738532083598493 -23.152045368269278 0 0 0
3601 3 76.2161301529616 -23.81101577952299 -23.81101577952299 0 0 0
3604 3 76.2161301529616 -23.01731525353889 -23.01731525353889 0 0 0
3602 3 76.98895102045766 -23.01731525353889 -23.81101577952299 0 0 0
3603 3 76.98895102045766 -23.81101577952299 -23.01731525353889 0 0 0
3605 3 77.76177188795373 -23.81101577952299 -23.81101577952299 0 0 0
3606 3 77.76177188795373 -23.01731525353889 -23.01731525353889 0 0 0
3 1 -77.78265154644177 -22.22361472755479 -23.81101577952299 0 0 0
4 1 -77.78265154644177 -21.429914201570693 -23.01731525353889 0 0 0
13320 4 -58.6757478435596 -21.218655184145547 -23.695154684008482 0 0 0
13798 4 -49.40894558875175 -21.25788048306941 -22.654704833976552 0 0 0
12951 4 -27.14032300642254 -21.44218683849723 -22.921387321988774 0 0 0
12282 4 -23.589325046195093 -22.007992821529072 -22.93589648594087 0 0 0
13758 4 -21.41043442909593 -22.358548455551574 -22.423762077112674 0 0 0
1803 2 0 -22.22361472755479 -23.81101577952299 0 0 0
1804 2 0 -21.429914201570693 -23.01731525353889 0 0 0
18320 4 15.932101598945763 -21.218655184145547 -23.695154684008482 0 0 0
17951 4 47.46752643608283 -21.44218683849723 -22.921387321988774 0 0 0
17282 4 51.01750226433034 -22.00782382850405 -22.93613441148119 0 0 0
3607 3 76.2161301529616 -22.22361472755479 -23.81101577952299 0 0 0
3610 3 76.2161301529616 -21.429914201570693 -23.01731525353889 0 0 0
3608 3 76.98895102045766 -21.429914201570693 -23.81101577952299 0 0 0
3609 3 76.98895102045766 -22.22361472755479 -23.01731525353889 0 0 0
3611 3 77.76177188795373 -22.22361472755479 -23.81101577952299 0 0 0
3612 3 77.76177188795373 -21.429914201570693 -23.01731525353889 0 0 0
5 1 -77.78265154644177 -20.636213675586593 -23.81101577952299 0 0 0
6 1 -77.78265154644177 -19.842513149602492 -23.01731525353889 0 0 0
9851 4 -65.04834597243392 -19.8242587171472 -22.58347200731686 0 0 0
13114 4 -52.25926897868318 -19.95779497286655 -23.100730896805626 0 0 0
10838 4 -15.68462799192939 -20.900535330049514 -23.343160663447414 0 0 0
11144 4 -5.517856762962126 -20.121820799703414 -23.396079829788384 0 0 0
1805 2 0 -20.636213675586593 -23.81101577952299 0 0 0
1806 2 0 -19.842513149602492 -23.01731525353889 0 0 0
14851 4 9.559503470071451 -19.8242587171472 -22.58347200731686 0 0 0
18114 4 22.34857978128498 -19.957795663488845 -23.100728957923785 0 0 0
18502 5 27.188748574367427 -20.99820264269096 -22.662218572148213 0 0 0
18937 5 36.87474351861206 -19.676359827063283 -23.106535012960844 0 0 0
15838 4 58.92322145057597 -20.900535330049514 -23.343160663447414 0 0 0
16144 4 69.08999267954324 -20.121820799703414 -23.396079829788384 0 0 0
3613 3 76.2161301529616 -20.636213675586593 -23.81101577952299 0 0 0
3616 3 76.2161301529616 -19.842513149602492 -23.01731525353889 0 0 0
3614 3 76.98895102045766 -19.842513149602492 -23.81101577952299 0 0 0
3615 3 76.98895102045766 -20.636213675586593 -23.01731525353889 0 0 0
3617 3 77.76177188795373 -20.636213675586593 -23.81101577952299 0 0 0
3618 3 77.76177188795373 -19.842513149602492 -23.01731525353889 0 0 0
7 1 -77.78265154644177 -19.048812623618392 -23.81101577952299 0 0 0
8 1 -77.78265154644177 -18.255112097634292 -23.01731525353889 0 0 0
13313 4 -21.482122338737376 -19.073627264071497 -23.16148803823908 0 0 0
11529 4 -8.023619752752772 -19.438978690334903 -23.778353403296318 0 0 0
1807 2 0 -19.048812623618392 -23.81101577952299 0 0 0
1808 2 0 -18.255112097634292 -23.01731525353889 0 0 0
18947 5 26.567584229573256 -18.523000915175892 -22.554820778911164 0 0 0
18313 4 53.1340530263028 -19.08149879350946 -23.156291404971427 0 0 0
16529 4 66.58422968975259 -19.438978690334903 -23.778353403296318 0 0 0
3619 3 76.2161301529616 -19.048812623618392 -23.81101577952299 0 0 0
3622 3 76.2161301529616 -18.255112097634292 -23.01731525353889 0 0 0
3620 3 76.98895102045766 -18.255112097634292 -23.81101577952299 0 0 0
3621 3 76.98895102045766 -19.048812623618392 -23.01731525353889 0 0 0
3623 3 77.76177188795373 -19.048812623618392 -23.81101577952299 0 0 0
3624 3 77.76177188795373 -18.255112097634292 -23.01731525353889 0 0 0
9 1 -77.78265154644177 -17.461411571650192 -23.81101577952299 0 0 0
10964 4 -70.09068097466927 -16.87085976602338 -22.435308949699156 0 0 0
12267 4 -69.86129534022403 -17.501664379887515 -23.34364198227373 0 0 0
11601 4 -30.380920065302618 -17.699213369139287 -23.46997732282109 0 0 0
9160 4 -27.046577737633044 -17.509331851039487 -22.807417075556003 0 0 0
12411 4 -24.609744943897894 -16.880292181004794 -22.628688910671336 0 0 0
9685 4 -21.849927013629596 -17.541400560371162 -22.799841180939058 0 0 0
11586 4 -9.416423817308015 -16.84348857468403 -23.156887745194872 0 0 0
1809 2 0 -17.461411571650192 -23.81101577952299 0 0 0
15964 4 4.517475293857122 -16.870749032585326 -22.435830329785528 0 0 0
17267 4 4.746581301781713 -17.50174709502364 -23.34375518941006 0 0 0
16601 4 44.22692937720275 -17.699213369139287 -23.46997732282109 0 0 0
14160 4 47.561271704872325 -17.509331851039487 -22.807417075556003 0 0 0
17411 4 49.998104498607475 -16.880292181004794 -22.628688910671336 0 0 0
14685 4 52.75791322142931 -17.54131834835364 -22.799809663653242 0 0 0
16586 4 65.19142562519735 -16.84348857468403 -23.156887745194872 0 0 0
3625 3 76.2161301529616 -17.461411571650192 -23.81101577952299 0 0 0
3627 3 76.98895102045766 -17.461411571650192 -23.01731525353889 0 0 0
3629 3 77.76177188795373 -17.461411571650192 -23.81101577952299 0 0 0
10 1 -77.78265154644177 -16.667711045666092 -23.01731525353889 0 0 0
11 1 -77.78265154644177 -15.874010519681994 -23.81101577952299 0 0 0
1810 2 0 -16.667711045666092 -23.01731525353889 0 0 0
1811 2 0 -15.874010519681994 -23.81101577952299 0 0 0
3628 3 76.2161301529616 -16.667711045666092 -23.01731525353889 0 0 0
3631 3 76.2161301529616 -15.874010519681994 -23.81101577952299 0 0 0
3626 3 76.98895102045766 -16.667711045666092 -23.81101577952299 0 0 0
3630 3 77.76177188795373 -16.667711045666092 -23.01731525353889 0 0 0
3633 3 76.98895102045766 -15.874010519681994 -23.01731525353889 0 0 0
3635 3 77.76177188795373 -15.874010519681994 -23.81101577952299 0 0 0
12 1 -77.78265154644177 -15.080309993697893 -23.01731525353889 0 0 0
13 1 -77.78265154644177 -14.286609467713795 -23.81101577952299 0 0 0
10443 4 -37.49437541577736 -14.114173093315985 -22.531760378858618 0 0 0
9416 4 -37.10496310750052 -14.597556695025027 -23.73008567558637 0 0 0
12876 4 -4.780709231339791 -14.413171349291808 -22.991642571706272 0 0 0
1812 2 0 -15.080309993697893 -23.01731525353889 0 0 0
1813 2 0 -14.286609467713795 -23.81101577952299 0 0 0
15443 4 37.11347402672801 -14.114173093315985 -22.53176037885861 0 0 0
14416 4 37.50288633500397 -14.597556695023297 -23.73008567558745 0 0 0
17876 4 69.82657239655119 -14.412070602227304 -22.991375555448577 0 0 0
3634 3 76.2161301529616 -15.080309993697893 -23.01731525353889 0 0 0
3637 3 76.2161301529616 -14.286609467713795 -23.81101577952299 0 0 0
3632 3 76.98895102045766 -15.080309993697893 -23.81101577952299 0 0 0
3636 3 77.76177188795373 -15.080309993697893 -23.01731525353889 0 0 0
3639 3 76.98895102045766 -14.286609467713795 -23.01731525353889 0 0 0
3641 3 77.76177188795373 -14.286609467713795 -23.81101577952299 0 0 0
14 1 -77.78265154644177 -13.492908941729695 -23.01731525353889 0 0 0
15 1 -77.78265154644177 -12.699208415745595 -23.81101577952299 0 0 0
9831 4 -68.27657041101375 -13.868336167204614 -22.903512236922463 0 0 0
11388 4 -62.96864215936141 -13.009828957806564 -23.29406578465174 0 0 0
13156 4 -49.61215224763103 -13.89256626431957 -22.495842084412597 0 0 0
13691 4 -47.947825913760376 -12.838341295235264 -22.74121889231273 0 0 0
10107 4 -9.586368033538884 -12.63576592999862 -23.511492349882662 0 0 0
10258 4 -6.897484526046136 -13.418850845312367 -22.48921233768431 0 0 0
1814 2 0 -13.492908941729695 -23.01731525353889 0 0 0
1815 2 0 -12.699208415745595 -23.81101577952299 0 0 0
14831 4 6.31001113196135 -13.859822951551408 -22.915557795204638 0 0 0
16388 4 11.639207283143959 -13.009828957806564 -23.29406578465174 0 0 0
18156 4 25.318544162153724 -13.897652771172115 -22.768759763984722 0 0 0
15107 4 65.02148140896645 -12.635765929998612 -23.511492349882655 0 0 0
15258 4 67.71036558563961 -13.418851037037534 -22.489212549119518 0 0 0
3640 3 76.2161301529616 -13.492908941729695 -23.01731525353889 0 0 0
3643 3 76.2161301529616 -12.699208415745595 -23.81101577952299 0 0 0
3638 3 76.98895102045766 -13.492908941729695 -23.81101577952299 0 0 0
3642 3 77.76177188795373 -13.492908941729695 -23.01731525353889 0 0 0
3645 3 76.98895102045766 -12.699208415745595 -23.01731525353889 0 0 0
3647 3 77.76177188795373 -12.699208415745595 -23.81101577952299 0 0 0
16 1 -77.78265154644177 -11.905507889761495 -23.01731525353889 0 0 0
9696 4 -69.04842501290435 -11.44610178190168 -22.73279954057064 0 0 0
9172 4 -65.91159380941883 -11.845895117288636 -22.974900309090575 0 0 0
12406 4 -41.18013210706765 -11.967920148227028 -23.053925282791294 0 0 0
12293 4 -28.345991023408523 -12.29543344220097 -23.06302691726502 0 0 0
1816 2 0 -11.905507889761495 -23.01731525353889 0 0 0
14696 4 5.545220853797227 -11.44660929292176 -22.73032906517883 0 0 0
14172 4 8.696255633086539 -11.845895117288638 -22.974900309090575 0 0 0
17406 4 33.42771733543772 -11.967920148227028 -23.053925282791294 0 0 0
17293 4 46.26185842052601 -12.295433441248981 -23.063026916336177 0 0 0
3646 3 76.2161301529616 -11.905507889761495 -23.01731525353889 0 0 0
3644 3 76.98895102045766 -11.905507889761495 -23.81101577952299 0 0 0
3648 3 77.76177188795373 -11.905507889761495 -23.01731525353889 0 0 0
17 1 -77.78265154644177 -11.111807363777395 -23.81101577952299 0 0 0
18 1 -77.78265154644177 -10.318106837793296 -23.01731525353889 0 0 0
10013 4 -62.35022357592524 -10.749390326389978 -22.825138336715778 0 0 0
10288 4 -61.22495333212763 -10.076686797529407 -23.30360325359316 0 0 0
13077 4 -32.28055800764938 -10.65486818836052 -23.481984473189062 0 0 0
1817 2 0 -11.111807363777395 -23.81101577952299 0 0 0
1818 2 0 -10.318106837793296 -23.01731525353889 0 0 0
15013 4 12.25762586658011 -10.74939032638998 -22.825138336715778 0 0 0
15288 4 13.382896110377757 -10.076686797529407 -23.30360325359316 0 0 0
18794 5 23.641466381143545 -11.055802741662957 -22.466572928309002 0 0 0
18077 4 42.32729135253998 -10.654868145259393 -23.481984461093866 0 0 0
3649 3 76.2161301529616 -11.111807363777395 -23.81101577952299 0 0 0
3652 3 76.2161301529616 -10.318106837793296 -23.01731525353889 0 0 0
3650 3 76.98895102045766 -10.318106837793296 -23.81101577952299 0 0 0
3651 3 76.98895102045766 -11.111807363777395 -23.01731525353889 0 0 0
3653 3 77.76177188795373 -11.111807363777395 -23.81101577952299 0 0 0
3654 3 77.76177188795373 -10.318106837793296 -23.01731525353889 0 0 0
19 1 -77.78265154644177 -9.524406311809196 -23.81101577952299 0 0 0
20 1 -77.78265154644177 -8.730705785825096 -23.01731525353889 0 0 0
9249 4 -56.51314968110952 -8.562125642140884 -22.789989037698955 0 0 0
9742 4 -42.77992521652137 -9.026492248014549 -23.13925818999365 0 0 0
9602 4 -38.43426940265228 -9.089048502897267 -23.58183063083465 0 0 0
13382 4 -12.332727065822574 -8.599325626486703 -23.12351344841721 0 0 0
9805 4 -7.855763989863519 -8.6531084914917 -22.516834890477064 0 0 0
10384 4 -3.6690155237890707 -8.977780085542896 -22.95391866178829 0 0 0
1819 2 0 -9.524406311809196 -23.81101577952299 0 0 0
1820 2 0 -8.730705785825096 -23.01731525353889 0 0 0
14249 4 18.09469976139585 -8.562125642140884 -22.789989037698955 0 0 0
18683 5 23.21791175304007 -8.636640947129127 -22.937200789705656 0 0 0
14742 4 31.82742874145079 -9.024943531971415 -23.14169377574443 0 0 0
14602 4 36.173580039853086 -9.089048502897267 -23.58183063083465 0 0 0
18382 4 62.27539123171948 -8.599495399733597 -23.1226118483261 0 0 0
14805 4 66.76456896474667 -8.642101895888931 -22.508042591310897 0 0 0
15384 4 70.9388339187163 -8.977780085542896 -22.95391866178829 0 0 0
3655 3 76.2161301529616 -9.524406311809196 -23.81101577952299 0 0 0
3658 3 76.2161301529616 -8.730705785825096 -23.01731525353889 0 0 0
3656 3 76.98895102045766 -8.730705785825096 -23.81101577952299 0 0 0
3657 3 76.98895102045766 -9.524406311809196 -23.01731525353889 0 0 0
3659 3 77.76177188795373 -9.524406311809196 -23.81101577952299 0 0 0
3660 3 77.76177188795373 -8.730705785825096 -23.01731525353889 0 0 0
21 1 -77.78265154644177 -7.937005259840997 -23.81101577952299 0 0 0
22 1 -77.78265154644177 -7.143304733856898 -23.01731525353889 0 0 0
12759 4 -55.00455542105884 -7.9309948750622175 -22.67844571253303 0 0 0
10797 4 -41.70592087097375 -7.630095563257436 -23.52663516054874 0 0 0
13378 4 -35.984704288769535 -8.226901752064006 -22.780131029245215 0 0 0
11515 4 -29.449259890767877 -7.967629015570191 -23.147816715088425 0 0 0
13384 4 -29.845549627740382 -7.31972837513023 -22.309872387909664 0 0 0
10369 4 -25.899734490087905 -7.780742483372434 -23.260167316153005 0 0 0
12765 4 -10.699791998019212 -7.9424097348690115 -22.774915586783997 0 0 0
1821 2 0 -7.937005259840997 -23.81101577952299 0 0 0
1822 2 0 -7.143304733856898 -23.01731525353889 0 0 0
17759 4 19.603294021446523 -7.9309948750622175 -22.67844571253303 0 0 0
15797 4 32.90192218006059 -7.630101853972045 -23.526635262678564 0 0 0
18378 4 38.623145153735834 -8.226901752064006 -22.780131029245215 0 0 0
16515 4 45.158589551737506 -7.967629015570191 -23.147816715088428 0 0 0
18384 4 44.76229981476499 -7.319728375130231 -22.309872387909664 0 0 0
15369 4 48.70811495241746 -7.78074248337243 -23.260167316153 0 0 0
17765 4 63.90805531027441 -7.942410917675874 -22.774914171652092 0 0 0
3661 3 76.2161301529616 -7.937005259840997 -23.81101577952299 0 0 0
3664 3 76.2161301529616 -7.143304733856898 -23.01731525353889 0 0 0
3662 3 76.98895102045766 -7.143304733856898 -23.81101577952299 0 0 0
3663 3 76.98895102045766 -7.937005259840997 -23.01731525353889 0 0 0
3665 3 77.76177188795373 -7.937005259840997 -23.81101577952299 0 0 0
3666 3 77.76177188795373 -7.143304733856898 -23.01731525353889 0 0 0
23 1 -77.78265154644177 -6.3496042078727974 -23.81101577952299 0 0 0
10982 4 -39.341071274435556 -6.1201536149988565 -23.679192197768177 0 0 0
12748 4 -30.994979432521575 -6.211811347253078 -23.435895861407165 0 0 0
9529 4 -7.342060078111018 -7.006960269754439 -22.451779939506242 0 0 0
1823 2 0 -6.3496042078727974 -23.81101577952299 0 0 0
15982 4 35.14801367478714 -6.156802348217367 -23.669670877129164 0 0 0
17748 4 43.61287000998381 -6.211811347253078 -23.435895861407165 0 0 0
14529 4 67.08628190031347 -6.950666398540485 -22.635139094192375 0 0 0
3667 3 76.2161301529616 -6.3496042078727974 -23.81101577952299 0 0 0
3669 3 76.98895102045766 -6.3496042078727974 -23.01731525353889 0 0 0
3671 3 77.76177188795373 -6.3496042078727974 -23.81101577952299 0 0 0
24 1 -77.78265154644177 -5.555903681888697 -23.01731525353889 0 0 0
25 1 -77.78265154644177 -4.762203155904598 -23.81101577952299 0 0 0
9918 4 -49.845644009598445 -5.033577684999642 -22.61210292334527 0 0 0
10307 4 -45.98699322826643 -4.533129150584413 -23.567425085859703 0 0 0
12218 4 -21.008771366875898 -4.807071841169467 -23.279807359385774 0 0 0
1824 2 0 -5.555903681888697 -23.01731525353889 0 0 0
1825 2 0 -4.762203155904598 -23.81101577952299 0 0 0
14918 4 24.758483236881418 -5.026017724712025 -22.498166141067315 0 0 0
15307 4 28.62086352131809 -4.53312646887618 -23.567429119938396 0 0 0
17218 4 53.589495553590346 -4.801548663335106 -23.27501714330605 0 0 0
18512 5 68.01658269479005 -5.235324660740265 -22.958966784750594 0 0 0
3670 3 76.2161301529616 -5.555903681888697 -23.01731525353889 0 0 0
3673 3 76.2161301529616 -4.762203155904598 -23.81101577952299 0 0 0
3668 3 76.98895102045766 -5.555903681888697 -23.81101577952299 0 0 0
3672 3 77.76177188795373 -5.555903681888697 -23.01731525353889 0 0 0
3675 3 76.98895102045766 -4.762203155904598 -23.01731525353889 0 0 0
3677 3 77.76177188795373 -4.762203155904598 -23.81101577952299 0 0 0
26 1 -77.78265154644177 -3.9685026299204984 -23.01731525353889 0 0 0
27 1 -77.78265154644177 -3.1748021039363987 -23.81101577952299 0 0 0
10817 4 -69.20628684296197 -2.945630469741219 -22.424671999647078 0 0 0
12236 4 -60.100350847156335 -2.999846280225156 -23.034730707593514 0 0 0
11033 4 -34.85937911481988 -2.94941255769401 -22.956414457057377 0 0 0
11530 4 -35.721890432701684 -3.548643176488047 -23.382114488899163 0 0 0
13035 4 -10.832765645887536 -2.9367611767696964 -23.02937594006261 0 0 0
9712 4 -4.054136123544802 -3.348376499985703 -22.997645921641514 0 0 0
1826 2 0 -3.9685026299204984 -23.01731525353889 0 0 0
1827 2 0 -3.1748021039363987 -23.81101577952299 0 0 0
15817 4 5.402172952276983 -2.948137071472324 -22.426938827501825 0 0 0
17236 4 14.431492652522211 -3.0253436037822374 -23.082714959109868 0 0 0
16033 4 39.74847063986168 -2.949408296961336 -22.956412366259425 0 0 0
16530 4 38.8859685151684 -3.5486353419663734 -23.382108238763674 0 0 0
18035 4 63.77509064002735 -2.936759670003037 -23.029375204024536 0 0 0
14712 4 70.55240095908981 -3.3495703993877974 -22.995965788764753 0 0 0
3676 3 76.2161301529616 -3.9685026299204984 -23.01731525353889 0 0 0
3679 3 76.2161301529616 -3.1748021039363987 -23.81101577952299 0 0 0
3674 3 76.98895102045766 -3.9685026299204984 -23.81101577952299 0 0 0
3678 3 77.76177188795373 -3.9685026299204984 -23.01731525353889 0 0 0
3681 3 76.98895102045766 -3.1748021039363987 -23.01731525353889 0 0 0
3683 3 77.76177188795373 -3.1748021039363987 -23.81101577952299 0 0 0
28 1 -77.78265154644177 -2.381101577952299 -23.01731525353889 0 0 0
29 1 -77.78265154644177 -1.5874010519681994 -23.81101577952299 0 0 0
11016 4 -59.02294463918455 -1.6414668024332466 -23.047026218142868 0 0 0
11957 4 -56.75650981275053 -2.149209571269706 -22.77959863316815 0 0 0
13431 4 -38.83142397679593 -2.1152177597494743 -23.05237449908942 0 0 0
10756 4 -33.98070825202118 -1.431617586101357 -23.183908722345365 0 0 0
10670 4 -25.049257731094244 -1.973521117093217 -23.73669368307615 0 0 0
12388 4 -23.652836235118606 -2.05980827325676 -22.42478406801644 0 0 0
9862 4 -16.340448891343243 -1.469839511850471 -23.139293670902642 0 0 0
12295 4 -15.434281214318117 -2.513987521987906 -23.444210470276133 0 0 0
10904 4 -8.998114419170733 -2.142802184329214 -22.624761333844287 0 0 0
11050 4 -5.57301796748885 -2.250290280403956 -22.596565159335583 0 0 0
1828 2 0 -2.381101577952299 -23.01731525353889 0 0 0
1829 2 0 -1.5874010519681994 -23.81101577952299 0 0 0
16016 4 15.483234582203197 -1.326715070250834 -23.353484801834796 0 0 0
16957 4 17.83002904046186 -2.154504484239344 -22.77133088819875 0 0 0
18431 4 35.776425961720506 -2.115219075191354 -23.05237344205537 0 0 0
15756 4 40.62714118953599 -1.4316175521312524 -23.183908751818667 0 0 0
15670 4 49.55860181994328 -1.9735138719283603 -23.736701288292966 0 0 0
17388 4 50.954294783761725 -2.059777640840166 -22.42474308817896 0 0 0
14862 4 58.26740055116212 -1.4698395118504712 -23.139293670902646 0 0 0
17295 4 59.17356822818723 -2.513987521987905 -23.444210470276133 0 0 0
15904 4 65.60899371046814 -2.1471415021219813 -22.627055369721027 0 0 0
16050 4 69.03482378054588 -2.250295619462816 -22.59656901850758 0 0 0
3682 3 76.2161301529616 -2.381101577952299 -23.01731525353889 0 0 0
3685 3 76.2161301529616 -1.5874010519681994 -23.81101577952299 0 0 0
3680 3 76.98895102045766 -2.381101577952299 -23.81101577952299 0 0 0
3684 3 77.76177188795373 -2.381101577952299 -23.01731525353889 0 0 0
3687 3 76.98895102045766 -1.5874010519681994 -23.01731525353889 0 0 0
3689 3 77.76177188795373 -1.5874010519681994 -23.81101577952299 0 0 0
30 1 -77.78265154644177 -0.7937005259840997 -23.01731525353889 0 0 0
9801 4 -70.13159358860827 -0.4939867779657099 -23.59827609306793 0 0 0
13552 4 -52.51358829938208 -1.1772236663947453 -22.455064092385868 0 0 0
9765 4 -41.56071717039789 -0.07825007695130007 -22.986798787004624 0 0 0
12940 4 -15.230314883485901 -0.6304794067767894 -23.70706907877074 0 0 0
1830 2 0 -0.7937005259840997 -23.01731525353889 0 0 0
14801 4 4.476256186860046 -0.493987161098309 -23.598275711586744 0 0 0
14765 4 33.047132270957306 -0.07825008140212589 -22.98679878507901 0 0 0
17940 4 59.377534559019445 -0.6304794067767897 -23.70706907877074 0 0 0
3688 3 76.2161301529616 -0.7937005259840997 -23.01731525353889 0 0 0
3686 3 76.98895102045766 -0.7937005259840997 -23.81101577952299 0 0 0
3690 3 77.76177188795373 -0.7937005259840997 -23.01731525353889 0 0 0
31 1 -77.78265154644177 0 -23.81101577952299 0 0 0
32 1 -77.78265154644177 0.7937005259840997 -23.01731525353889 0 0 0
13324 4 -29.955263987063546 0.3299860689462642 -22.62456844667977 0 0 0
13594 4 -25.32791119904009 1.0983454909462498 -23.132832532583937 0 0 0
13601 4 -9.52465402038444 0.7931685876566578 -22.843721612151043 0 0 0
9039 4 -6.407007714951658 1.1520288285849218 -22.56787822844385 0 0 0
13368 4 -3.1963683500240596 1.3128235252327594 -22.812163720586703 0 0 0
1831 2 0 0 -23.81101577952299 0 0 0
1832 2 0 0.7937005259840997 -23.01731525353889 0 0 0
18324 4 44.65258545544182 0.32998606894626414 -22.62456844667977 0 0 0
14039 4 68.20090629455142 1.1519605989701556 -22.567849390834095 0 0 0
18368 4 71.41356319856519 1.3129880601253703 -22.819057154472386 0 0 0
3691 3 76.2161301529616 1.6062400728877697e-18 -23.81101577952299 0 0 0
3694 3 76.2161301529616 0.7937005259840997 -23.01731525353889 0 0 0
3692 3 76.98895102045766 0.7937005259840997 -23.81101577952299 0 0 0
3693 3 76.98895102045766 -9.525369800438579e-19 -23.01731525353889 0 0 0
3695 3 77.76177188795373 -2.26879795409462e-18 -23.81101577952299 0 0 0
3696 3 77.76177188795373 0.7937005259840997 -23.01731525353889 0 0 0
33 1 -77.78265154644177 1.5874010519681994 -23.81101577952299 0 0 0
34 1 -77.78265154644177 2.381101577952299 -23.01731525353889 0 0 0
11747 4 -55.16538671333389 1.5145402361803413 -22.90913460663515 0 0 0
13134 4 -41.340664935784865 2.0576071927949986 -23.187954422592288 0 0 0
9916 4 -37.69647219636678 1.93694120590004 -22.793625137800955 0 0 0
11508 4 -33.553489209766795 1.6553682590782945 -22.78339566279642 0 0 0
10657 4 -25.247958029372487 2.2229003949943467 -23.167548752315014 0 0 0
10962 4 -6.195590236954096 2.3279176057409963 -22.517250054034744 0 0 0
1833 2 0 1.5874010519681994 -23.81101577952299 0 0 0
1834 2 0 2.381101577952299 -23.01731525353889 0 0 0
16747 4 19.442462729171474 1.5145402361803413 -22.90913460663515 0 0 0
18134 4 33.26718035653676 2.057614178021346 -23.187943562592736 0 0 0
14916 4 36.91137724613859 1.93694120590004 -22.793625137800955 0 0 0
16508 4 41.054360232738574 1.6553682590782945 -22.78339566279642 0 0 0
15657 4 49.344128442452366 1.9615026661528283 -23.197643354024798 0 0 0
15962 4 68.41225809276006 2.3279161768569647 -22.517250903592224 0 0 0
3697 3 76.2161301529616 1.5874010519681994 -23.81101577952299 0 0 0
3700 3 76.2161301529616 2.381101577952299 -23.01731525353889 0 0 0
3698 3 76.98895102045766 2.381101577952299 -23.81101577952299 0 0 0
3699 3 76.98895102045766 1.5874010519681994 -23.01731525353889 0 0 0
3701 3 77.76177188795373 1.5874010519681994 -23.81101577952299 0 0 0
3702 3 77.76177188795373 2.381101577952299 -23.01731525353889 0 0 0
35 1 -77.78265154644177 3.1748021039363987 -23.81101577952299 0 0 0
36 1 -77.78265154644177 3.9685026299204984 -23.01731525353889 0 0 0
10295 4 -38.09280360637718 2.888542571892995 -23.242298109012197 0 0 0
12076 4 -23.352729398172322 4.163553803411451 -22.64409050921832 0 0 0
1835 2 0 3.1748021039363987 -23.81101577952299 0 0 0
1836 2 0 3.9685026299204984 -23.01731525353889 0 0 0
15295 4 36.51504583612819 2.888542571892995 -23.242298109012197 0 0 0
17076 4 51.03987477269849 4.417805168651562 -22.50317895021114 0 0 0
18915 5 52.162360878143566 3.118691001740237 -23.38455248386275 0 0 0
3703 3 76.2161301529616 3.1748021039363987 -23.81101577952299 0 0 0
3706 3 76.2161301529616 3.9685026299204984 -23.01731525353889 0 0 0
3704 3 76.98895102045766 3.9685026299204984 -23.81101577952299 0 0 0
3705 3 76.98895102045766 3.1748021039363987 -23.01731525353889 0 0 0
3707 3 77.76177188795373 3.1748021039363987 -23.81101577952299 0 0 0
3708 3 77.76177188795373 3.9685026299204984 -23.01731525353889 0 0 0
37 1 -77.78265154644177 4.762203155904598 -23.81101577952299 0 0 0
38 1 -77.78265154644177 5.555903681888697 -23.01731525353889 0 0 0
9752 4 -71.40179850447315 5.394769929050559 -23.13443847325893 0 0 0
9561 4 -63.608587663373534 5.42761507153291 -23.38212375026706 0 0 0
9599 4 -33.763769012138766 5.463740404201342 -22.89179092918279 0 0 0
12666 4 -19.62679383643 4.638401704780609 -23.432815119110277 0 0 0
10935 4 -13.886084798090124 4.600162117445173 -23.254543989710122 0 0 0
1837 2 0 4.762203155904598 -23.81101577952299 0 0 0
1838 2 0 5.555903681888697 -23.01731525353889 0 0 0
14752 4 3.2060509380322233 5.394769929050559 -23.13443847325893 0 0 0
14561 4 10.999261777015635 5.427615071209441 -23.382123753496035 0 0 0
18663 5 32.898953058364484 5.563970366111101 -23.498593845096014 0 0 0
14599 4 40.84134146377722 5.456845941558607 -22.87755653334195 0 0 0
17666 4 54.98091874698935 4.638705648019974 -23.43347128211944 0 0 0
15935 4 60.721764644415245 4.600162117445173 -23.254543989710122 0 0 0
3709 3 76.2161301529616 4.762203155904598 -23.81101577952299 0 0 0
3712 3 76.2161301529616 5.555903681888697 -23.01731525353889 0 0 0
3710 3 76.98895102045766 5.555903681888697 -23.81101577952299 0 0 0
3711 3 76.98895102045766 4.762203155904598 -23.01731525353889 0 0 0
3713 3 77.76177188795373 4.762203155904598 -23.81101577952299 0 0 0
3714 3 77.76177188795373 5.555903681888697 -23.01731525353889 0 0 0
39 1 -77.78265154644177 6.3496042078727974 -23.81101577952299 0 0 0
9567 4 -57.42618105909823 6.877993523488 -23.729690655392726 0 0 0
10140 4 -56.335888278346566 6.868980789908049 -23.3803913999364 0 0 0
11754 4 -55.93405202516558 5.690216062542838 -22.625919604310482 0 0 0
11125 4 -38.9652985135287 6.188426347769056 -23.05555755209313 0 0 0
13034 4 -28.189769682696234 6.101802794756221 -23.01003210907163 0 0 0
11297 4 -17.260871437321292 6.388123341737796 -22.49216106152519 0 0 0
1839 2 0 6.3496042078727974 -23.81101577952299 0 0 0
14567 4 17.21269510611125 6.879131964549256 -23.74343066385363 0 0 0
15140 4 18.27559924356001 6.8689423435274275 -23.379535705783695 0 0 0
16754 4 18.673822152641957 5.690410548912871 -22.62538954430216 0 0 0
16125 4 35.73298905515531 6.358724321023438 -23.19328884007378 0 0 0
18034 4 46.41807975980912 6.101802794756221 -23.01003210907163 0 0 0
16297 4 57.34697800518408 6.388123341737796 -22.49216106152519 0 0 0
18753 5 71.27902684683261 5.573256124512019 -22.49547539045559 0 0 0
3715 3 76.2161301529616 6.3496042078727974 -23.81101577952299 0 0 0
3717 3 76.98895102045766 6.3496042078727974 -23.01731525353889 0 0 0
3719 3 77.76177188795373 6.3496042078727974 -23.81101577952299 0 0 0
40 1 -77.78265154644177 7.143304733856898 -23.01731525353889 0 0 0
41 1 -77.78265154644177 7.937005259840997 -23.81101577952299 0 0 0
11521 4 -36.66763635776967 7.839855314230317 -22.804263691788396 0 0 0
12743 4 -31.4718569239354 8.065802751333935 -23.67755194038081 0 0 0
11396 4 -25.48007663926134 7.889603987891382 -23.301944664481876 0 0 0
10870 4 -22.040301732017383 7.358479905604568 -23.305906908316732 0 0 0
9017 4 -20.536373565685924 7.526299252174011 -23.20418123138574 0 0 0
10900 4 -15.179138830105211 8.329390770603663 -23.698123144639556 0 0 0
10579 4 -3.281812617425686 7.198464072136616 -22.996531135765963 0 0 0
1840 2 0 7.143304733856898 -23.01731525353889 0 0 0
1841 2 0 7.937005259840997 -23.81101577952299 0 0 0
18727 5 15.393866795897152 6.818694781106453 -23.085233007473388 0 0 0
16521 4 37.93171704069044 7.841284090517048 -22.818602918795456 0 0 0
17743 4 43.13599259318739 8.065802722921328 -23.677551908609125 0 0 0
16396 4 49.128019991692554 7.889621076623149 -23.301277294501784 0 0 0
15870 4 52.567578937232 7.3584626560297 -23.30600270351619 0 0 0
14017 4 54.07283475756927 7.520642332517637 -23.229492843219187 0 0 0
15900 4 59.42871061240018 8.329390770603663 -23.698123144639556 0 0 0
15579 4 71.33231372302004 7.415466181039081 -23.063433438064553 0 0 0
3718 3 76.2161301529616 7.143304733856898 -23.01731525353889 0 0 0
3721 3 76.2161301529616 7.937005259840997 -23.81101577952299 0 0 0
3716 3 76.98895102045766 7.143304733856898 -23.81101577952299 0 0 0
3720 3 77.76177188795373 7.143304733856898 -23.01731525353889 0 0 0
3723 3 76.98895102045766 7.937005259840997 -23.01731525353889 0 0 0
3725 3 77.76177188795373 7.937005259840997 -23.81101577952299 0 0 0
42 1 -77.78265154644177 8.730705785825096 -23.01731525353889 0 0 0
43 1 -77.78265154644177 9.524406311809196 -23.81101577952299 0 0 0
12143 4 -70.50947514380745 8.544584866298727 -22.92729099465246 0 0 0
10895 4 -55.733621936677594 8.817489908870003 -23.552815879556704 0 0 0
12438 4 -43.8170554363986 9.221795148321586 -22.44472100495885 0 0 0
12890 4 -37.138286883848224 8.846622820800382 -22.60079263889429 0 0 0
9132 4 -20.64194622263053 8.539558396444896 -23.685568563755997 0 0 0